n -t * -s 0  -x 10 -y 10 -Z 0 -z 30  -v circle -c green
n -t * -s 1  -x 100 -y 100 -Z 0 -z 30  -v circle -c green
V -t * -v 1.0a5 -a 0
W -t * -x 300 -y 300
A -t * -n 1 -p 0 -o 0x7fffffff -c 30 -a 1
A -t * -h 1 -m 1073741823 -s 0
n -t 10.000000 -s 1 -x 100.000000 -y 100.000000 -U 3.535534 -V 3.535534 -T 48.083261
+ -t 10.000000000 -s 0 -d -1 -p tcp -e 40 -c 2 -a 0 -i 0 -k AGT 
- -t 10.000000000 -s 0 -d -1 -p tcp -e 40 -c 2 -a 0 -i 0 -k AGT
h -t 10.000000000 -s 0 -d -1 -p tcp -e 40 -c 2 -a 0 -i 0 -k AGT
+ -t 10.000000000 -s 0 -d -1 -p AODV -e 48 -c 2 -a 0 -i 0 -k RTR 
- -t 10.000000000 -s 0 -d -1 -p AODV -e 48 -c 2 -a 0 -i 0 -k RTR
h -t 10.000000000 -s 0 -d -1 -p AODV -e 48 -c 2 -a 0 -i 0 -k RTR
r -t 10.000988424 -s 1 -d -1 -p AODV -e 48 -c 2 -a 0 -i 0 -k RTR
+ -t 10.000988424 -s 1 -d 0 -p AODV -e 44 -c 2 -a 0 -i 0 -k RTR 
- -t 10.000988424 -s 1 -d 0 -p AODV -e 44 -c 2 -a 0 -i 0 -k RTR
h -t 10.000988424 -s 1 -d 0 -p AODV -e 44 -c 2 -a 0 -i 0 -k RTR
+ -t 10.005649394 -s 0 -d 1 -p tcp -e 40 -c 2 -a 0 -i 0 -k RTR 
- -t 10.005649394 -s 0 -d 1 -p tcp -e 40 -c 2 -a 0 -i 0 -k RTR
h -t 10.005649394 -s 0 -d 1 -p tcp -e 40 -c 2 -a 0 -i 0 -k RTR
r -t 10.007634668 -s 1 -d 1 -p tcp -e 40 -c 2 -a 0 -i 0 -k AGT
+ -t 10.007634668 -s 1 -d -1 -p ack -e 40 -c 2 -a 0 -i 1 -k AGT 
- -t 10.007634668 -s 1 -d -1 -p ack -e 40 -c 2 -a 0 -i 1 -k AGT
h -t 10.007634668 -s 1 -d -1 -p ack -e 40 -c 2 -a 0 -i 1 -k AGT
+ -t 10.007634668 -s 1 -d 0 -p ack -e 40 -c 2 -a 0 -i 1 -k RTR 
- -t 10.007634668 -s 1 -d 0 -p ack -e 40 -c 2 -a 0 -i 1 -k RTR
h -t 10.007634668 -s 1 -d 0 -p ack -e 40 -c 2 -a 0 -i 1 -k RTR
r -t 10.009499941 -s 0 -d 0 -p ack -e 40 -c 2 -a 0 -i 1 -k AGT
+ -t 10.009499941 -s 0 -d -1 -p tcp -e 1040 -c 2 -a 0 -i 2 -k AGT 
- -t 10.009499941 -s 0 -d -1 -p tcp -e 1040 -c 2 -a 0 -i 2 -k AGT
h -t 10.009499941 -s 0 -d -1 -p tcp -e 1040 -c 2 -a 0 -i 2 -k AGT
+ -t 10.009499941 -s 0 -d -1 -p tcp -e 1040 -c 2 -a 0 -i 3 -k AGT 
- -t 10.009499941 -s 0 -d -1 -p tcp -e 1040 -c 2 -a 0 -i 3 -k AGT
h -t 10.009499941 -s 0 -d -1 -p tcp -e 1040 -c 2 -a 0 -i 3 -k AGT
+ -t 10.009499941 -s 0 -d 1 -p tcp -e 1040 -c 2 -a 0 -i 2 -k RTR 
- -t 10.009499941 -s 0 -d 1 -p tcp -e 1040 -c 2 -a 0 -i 2 -k RTR
h -t 10.009499941 -s 0 -d 1 -p tcp -e 1040 -c 2 -a 0 -i 2 -k RTR
+ -t 10.009499941 -s 0 -d 1 -p tcp -e 1040 -c 2 -a 0 -i 3 -k RTR 
- -t 10.009499941 -s 0 -d 1 -p tcp -e 1040 -c 2 -a 0 -i 3 -k RTR
h -t 10.009499941 -s 0 -d 1 -p tcp -e 1040 -c 2 -a 0 -i 3 -k RTR
r -t 10.019525214 -s 1 -d 1 -p tcp -e 1040 -c 2 -a 0 -i 2 -k AGT
+ -t 10.019525214 -s 1 -d -1 -p ack -e 40 -c 2 -a 0 -i 4 -k AGT 
- -t 10.019525214 -s 1 -d -1 -p ack -e 40 -c 2 -a 0 -i 4 -k AGT
h -t 10.019525214 -s 1 -d -1 -p ack -e 40 -c 2 -a 0 -i 4 -k AGT
+ -t 10.019525214 -s 1 -d 0 -p ack -e 40 -c 2 -a 0 -i 4 -k RTR 
- -t 10.019525214 -s 1 -d 0 -p ack -e 40 -c 2 -a 0 -i 4 -k RTR
h -t 10.019525214 -s 1 -d 0 -p ack -e 40 -c 2 -a 0 -i 4 -k RTR
r -t 10.021510488 -s 0 -d 0 -p ack -e 40 -c 2 -a 0 -i 4 -k AGT
+ -t 10.021510488 -s 0 -d -1 -p tcp -e 1040 -c 2 -a 0 -i 5 -k AGT 
- -t 10.021510488 -s 0 -d -1 -p tcp -e 1040 -c 2 -a 0 -i 5 -k AGT
h -t 10.021510488 -s 0 -d -1 -p tcp -e 1040 -c 2 -a 0 -i 5 -k AGT
+ -t 10.021510488 -s 0 -d -1 -p tcp -e 1040 -c 2 -a 0 -i 6 -k AGT 
- -t 10.021510488 -s 0 -d -1 -p tcp -e 1040 -c 2 -a 0 -i 6 -k AGT
h -t 10.021510488 -s 0 -d -1 -p tcp -e 1040 -c 2 -a 0 -i 6 -k AGT
+ -t 10.021510488 -s 0 -d 1 -p tcp -e 1040 -c 2 -a 0 -i 5 -k RTR 
- -t 10.021510488 -s 0 -d 1 -p tcp -e 1040 -c 2 -a 0 -i 5 -k RTR
h -t 10.021510488 -s 0 -d 1 -p tcp -e 1040 -c 2 -a 0 -i 5 -k RTR
+ -t 10.021510488 -s 0 -d 1 -p tcp -e 1040 -c 2 -a 0 -i 6 -k RTR 
- -t 10.021510488 -s 0 -d 1 -p tcp -e 1040 -c 2 -a 0 -i 6 -k RTR
h -t 10.021510488 -s 0 -d 1 -p tcp -e 1040 -c 2 -a 0 -i 6 -k RTR
r -t 10.031435762 -s 1 -d 1 -p tcp -e 1040 -c 2 -a 0 -i 3 -k AGT
+ -t 10.031435762 -s 1 -d -1 -p ack -e 40 -c 2 -a 0 -i 7 -k AGT 
- -t 10.031435762 -s 1 -d -1 -p ack -e 40 -c 2 -a 0 -i 7 -k AGT
h -t 10.031435762 -s 1 -d -1 -p ack -e 40 -c 2 -a 0 -i 7 -k AGT
+ -t 10.031435762 -s 1 -d 0 -p ack -e 40 -c 2 -a 0 -i 7 -k RTR 
- -t 10.031435762 -s 1 -d 0 -p ack -e 40 -c 2 -a 0 -i 7 -k RTR
h -t 10.031435762 -s 1 -d 0 -p ack -e 40 -c 2 -a 0 -i 7 -k RTR
r -t 10.041301461 -s 1 -d 1 -p tcp -e 1040 -c 2 -a 0 -i 5 -k AGT
+ -t 10.041301461 -s 1 -d -1 -p ack -e 40 -c 2 -a 0 -i 8 -k AGT 
- -t 10.041301461 -s 1 -d -1 -p ack -e 40 -c 2 -a 0 -i 8 -k AGT
h -t 10.041301461 -s 1 -d -1 -p ack -e 40 -c 2 -a 0 -i 8 -k AGT
+ -t 10.041301461 -s 1 -d 0 -p ack -e 40 -c 2 -a 0 -i 8 -k RTR 
- -t 10.041301461 -s 1 -d 0 -p ack -e 40 -c 2 -a 0 -i 8 -k RTR
h -t 10.041301461 -s 1 -d 0 -p ack -e 40 -c 2 -a 0 -i 8 -k RTR
r -t 10.043226736 -s 0 -d 0 -p ack -e 40 -c 2 -a 0 -i 7 -k AGT
+ -t 10.043226736 -s 0 -d -1 -p tcp -e 1040 -c 2 -a 0 -i 9 -k AGT 
- -t 10.043226736 -s 0 -d -1 -p tcp -e 1040 -c 2 -a 0 -i 9 -k AGT
h -t 10.043226736 -s 0 -d -1 -p tcp -e 1040 -c 2 -a 0 -i 9 -k AGT
+ -t 10.043226736 -s 0 -d -1 -p tcp -e 1040 -c 2 -a 0 -i 10 -k AGT 
- -t 10.043226736 -s 0 -d -1 -p tcp -e 1040 -c 2 -a 0 -i 10 -k AGT
h -t 10.043226736 -s 0 -d -1 -p tcp -e 1040 -c 2 -a 0 -i 10 -k AGT
+ -t 10.043226736 -s 0 -d 1 -p tcp -e 1040 -c 2 -a 0 -i 9 -k RTR 
- -t 10.043226736 -s 0 -d 1 -p tcp -e 1040 -c 2 -a 0 -i 9 -k RTR
h -t 10.043226736 -s 0 -d 1 -p tcp -e 1040 -c 2 -a 0 -i 9 -k RTR
+ -t 10.043226736 -s 0 -d 1 -p tcp -e 1040 -c 2 -a 0 -i 10 -k RTR 
- -t 10.043226736 -s 0 -d 1 -p tcp -e 1040 -c 2 -a 0 -i 10 -k RTR
h -t 10.043226736 -s 0 -d 1 -p tcp -e 1040 -c 2 -a 0 -i 10 -k RTR
r -t 10.045212436 -s 0 -d 0 -p ack -e 40 -c 2 -a 0 -i 8 -k AGT
+ -t 10.045212436 -s 0 -d -1 -p tcp -e 1040 -c 2 -a 0 -i 11 -k AGT 
- -t 10.045212436 -s 0 -d -1 -p tcp -e 1040 -c 2 -a 0 -i 11 -k AGT
h -t 10.045212436 -s 0 -d -1 -p tcp -e 1040 -c 2 -a 0 -i 11 -k AGT
+ -t 10.045212436 -s 0 -d -1 -p tcp -e 1040 -c 2 -a 0 -i 12 -k AGT 
- -t 10.045212436 -s 0 -d -1 -p tcp -e 1040 -c 2 -a 0 -i 12 -k AGT
h -t 10.045212436 -s 0 -d -1 -p tcp -e 1040 -c 2 -a 0 -i 12 -k AGT
+ -t 10.045212436 -s 0 -d 1 -p tcp -e 1040 -c 2 -a 0 -i 11 -k RTR 
- -t 10.045212436 -s 0 -d 1 -p tcp -e 1040 -c 2 -a 0 -i 11 -k RTR
h -t 10.045212436 -s 0 -d 1 -p tcp -e 1040 -c 2 -a 0 -i 11 -k RTR
+ -t 10.045212436 -s 0 -d 1 -p tcp -e 1040 -c 2 -a 0 -i 12 -k RTR 
- -t 10.045212436 -s 0 -d 1 -p tcp -e 1040 -c 2 -a 0 -i 12 -k RTR
h -t 10.045212436 -s 0 -d 1 -p tcp -e 1040 -c 2 -a 0 -i 12 -k RTR
r -t 10.055317711 -s 1 -d 1 -p tcp -e 1040 -c 2 -a 0 -i 6 -k AGT
+ -t 10.055317711 -s 1 -d -1 -p ack -e 40 -c 2 -a 0 -i 13 -k AGT 
- -t 10.055317711 -s 1 -d -1 -p ack -e 40 -c 2 -a 0 -i 13 -k AGT
h -t 10.055317711 -s 1 -d -1 -p ack -e 40 -c 2 -a 0 -i 13 -k AGT
+ -t 10.055317711 -s 1 -d 0 -p ack -e 40 -c 2 -a 0 -i 13 -k RTR 
- -t 10.055317711 -s 1 -d 0 -p ack -e 40 -c 2 -a 0 -i 13 -k RTR
h -t 10.055317711 -s 1 -d 0 -p ack -e 40 -c 2 -a 0 -i 13 -k RTR
r -t 10.057222987 -s 0 -d 0 -p ack -e 40 -c 2 -a 0 -i 13 -k AGT
+ -t 10.057222987 -s 0 -d -1 -p tcp -e 1040 -c 2 -a 0 -i 14 -k AGT 
- -t 10.057222987 -s 0 -d -1 -p tcp -e 1040 -c 2 -a 0 -i 14 -k AGT
h -t 10.057222987 -s 0 -d -1 -p tcp -e 1040 -c 2 -a 0 -i 14 -k AGT
+ -t 10.057222987 -s 0 -d -1 -p tcp -e 1040 -c 2 -a 0 -i 15 -k AGT 
- -t 10.057222987 -s 0 -d -1 -p tcp -e 1040 -c 2 -a 0 -i 15 -k AGT
h -t 10.057222987 -s 0 -d -1 -p tcp -e 1040 -c 2 -a 0 -i 15 -k AGT
+ -t 10.057222987 -s 0 -d 1 -p tcp -e 1040 -c 2 -a 0 -i 14 -k RTR 
- -t 10.057222987 -s 0 -d 1 -p tcp -e 1040 -c 2 -a 0 -i 14 -k RTR
h -t 10.057222987 -s 0 -d 1 -p tcp -e 1040 -c 2 -a 0 -i 14 -k RTR
+ -t 10.057222987 -s 0 -d 1 -p tcp -e 1040 -c 2 -a 0 -i 15 -k RTR 
- -t 10.057222987 -s 0 -d 1 -p tcp -e 1040 -c 2 -a 0 -i 15 -k RTR
h -t 10.057222987 -s 0 -d 1 -p tcp -e 1040 -c 2 -a 0 -i 15 -k RTR
r -t 10.067208262 -s 1 -d 1 -p tcp -e 1040 -c 2 -a 0 -i 9 -k AGT
+ -t 10.067208262 -s 1 -d -1 -p ack -e 40 -c 2 -a 0 -i 16 -k AGT 
- -t 10.067208262 -s 1 -d -1 -p ack -e 40 -c 2 -a 0 -i 16 -k AGT
h -t 10.067208262 -s 1 -d -1 -p ack -e 40 -c 2 -a 0 -i 16 -k AGT
+ -t 10.067208262 -s 1 -d 0 -p ack -e 40 -c 2 -a 0 -i 16 -k RTR 
- -t 10.067208262 -s 1 -d 0 -p ack -e 40 -c 2 -a 0 -i 16 -k RTR
h -t 10.067208262 -s 1 -d 0 -p ack -e 40 -c 2 -a 0 -i 16 -k RTR
r -t 10.077373964 -s 1 -d 1 -p tcp -e 1040 -c 2 -a 0 -i 10 -k AGT
+ -t 10.077373964 -s 1 -d -1 -p ack -e 40 -c 2 -a 0 -i 17 -k AGT 
- -t 10.077373964 -s 1 -d -1 -p ack -e 40 -c 2 -a 0 -i 17 -k AGT
h -t 10.077373964 -s 1 -d -1 -p ack -e 40 -c 2 -a 0 -i 17 -k AGT
+ -t 10.077373964 -s 1 -d 0 -p ack -e 40 -c 2 -a 0 -i 17 -k RTR 
- -t 10.077373964 -s 1 -d 0 -p ack -e 40 -c 2 -a 0 -i 17 -k RTR
h -t 10.077373964 -s 1 -d 0 -p ack -e 40 -c 2 -a 0 -i 17 -k RTR
r -t 10.079339241 -s 0 -d 0 -p ack -e 40 -c 2 -a 0 -i 16 -k AGT
+ -t 10.079339241 -s 0 -d -1 -p tcp -e 1040 -c 2 -a 0 -i 18 -k AGT 
- -t 10.079339241 -s 0 -d -1 -p tcp -e 1040 -c 2 -a 0 -i 18 -k AGT
h -t 10.079339241 -s 0 -d -1 -p tcp -e 1040 -c 2 -a 0 -i 18 -k AGT
+ -t 10.079339241 -s 0 -d -1 -p tcp -e 1040 -c 2 -a 0 -i 19 -k AGT 
- -t 10.079339241 -s 0 -d -1 -p tcp -e 1040 -c 2 -a 0 -i 19 -k AGT
h -t 10.079339241 -s 0 -d -1 -p tcp -e 1040 -c 2 -a 0 -i 19 -k AGT
+ -t 10.079339241 -s 0 -d 1 -p tcp -e 1040 -c 2 -a 0 -i 18 -k RTR 
- -t 10.079339241 -s 0 -d 1 -p tcp -e 1040 -c 2 -a 0 -i 18 -k RTR
h -t 10.079339241 -s 0 -d 1 -p tcp -e 1040 -c 2 -a 0 -i 18 -k RTR
+ -t 10.079339241 -s 0 -d 1 -p tcp -e 1040 -c 2 -a 0 -i 19 -k RTR 
- -t 10.079339241 -s 0 -d 1 -p tcp -e 1040 -c 2 -a 0 -i 19 -k RTR
h -t 10.079339241 -s 0 -d 1 -p tcp -e 1040 -c 2 -a 0 -i 19 -k RTR
r -t 10.089344517 -s 1 -d 1 -p tcp -e 1040 -c 2 -a 0 -i 11 -k AGT
+ -t 10.089344517 -s 1 -d -1 -p ack -e 40 -c 2 -a 0 -i 20 -k AGT 
- -t 10.089344517 -s 1 -d -1 -p ack -e 40 -c 2 -a 0 -i 20 -k AGT
h -t 10.089344517 -s 1 -d -1 -p ack -e 40 -c 2 -a 0 -i 20 -k AGT
+ -t 10.089344517 -s 1 -d 0 -p ack -e 40 -c 2 -a 0 -i 20 -k RTR 
- -t 10.089344517 -s 1 -d 0 -p ack -e 40 -c 2 -a 0 -i 20 -k RTR
h -t 10.089344517 -s 1 -d 0 -p ack -e 40 -c 2 -a 0 -i 20 -k RTR
r -t 10.091189795 -s 0 -d 0 -p ack -e 40 -c 2 -a 0 -i 17 -k AGT
+ -t 10.091189795 -s 0 -d -1 -p tcp -e 1040 -c 2 -a 0 -i 21 -k AGT 
- -t 10.091189795 -s 0 -d -1 -p tcp -e 1040 -c 2 -a 0 -i 21 -k AGT
h -t 10.091189795 -s 0 -d -1 -p tcp -e 1040 -c 2 -a 0 -i 21 -k AGT
+ -t 10.091189795 -s 0 -d -1 -p tcp -e 1040 -c 2 -a 0 -i 22 -k AGT 
- -t 10.091189795 -s 0 -d -1 -p tcp -e 1040 -c 2 -a 0 -i 22 -k AGT
h -t 10.091189795 -s 0 -d -1 -p tcp -e 1040 -c 2 -a 0 -i 22 -k AGT
+ -t 10.091189795 -s 0 -d 1 -p tcp -e 1040 -c 2 -a 0 -i 21 -k RTR 
- -t 10.091189795 -s 0 -d 1 -p tcp -e 1040 -c 2 -a 0 -i 21 -k RTR
h -t 10.091189795 -s 0 -d 1 -p tcp -e 1040 -c 2 -a 0 -i 21 -k RTR
+ -t 10.091189795 -s 0 -d 1 -p tcp -e 1040 -c 2 -a 0 -i 22 -k RTR 
- -t 10.091189795 -s 0 -d 1 -p tcp -e 1040 -c 2 -a 0 -i 22 -k RTR
h -t 10.091189795 -s 0 -d 1 -p tcp -e 1040 -c 2 -a 0 -i 22 -k RTR
r -t 10.093035498 -s 0 -d 0 -p ack -e 40 -c 2 -a 0 -i 20 -k AGT
+ -t 10.093035498 -s 0 -d -1 -p tcp -e 1040 -c 2 -a 0 -i 23 -k AGT 
- -t 10.093035498 -s 0 -d -1 -p tcp -e 1040 -c 2 -a 0 -i 23 -k AGT
h -t 10.093035498 -s 0 -d -1 -p tcp -e 1040 -c 2 -a 0 -i 23 -k AGT
+ -t 10.093035498 -s 0 -d -1 -p tcp -e 1040 -c 2 -a 0 -i 24 -k AGT 
- -t 10.093035498 -s 0 -d -1 -p tcp -e 1040 -c 2 -a 0 -i 24 -k AGT
h -t 10.093035498 -s 0 -d -1 -p tcp -e 1040 -c 2 -a 0 -i 24 -k AGT
+ -t 10.093035498 -s 0 -d 1 -p tcp -e 1040 -c 2 -a 0 -i 23 -k RTR 
- -t 10.093035498 -s 0 -d 1 -p tcp -e 1040 -c 2 -a 0 -i 23 -k RTR
h -t 10.093035498 -s 0 -d 1 -p tcp -e 1040 -c 2 -a 0 -i 23 -k RTR
+ -t 10.093035498 -s 0 -d 1 -p tcp -e 1040 -c 2 -a 0 -i 24 -k RTR 
- -t 10.093035498 -s 0 -d 1 -p tcp -e 1040 -c 2 -a 0 -i 24 -k RTR
h -t 10.093035498 -s 0 -d 1 -p tcp -e 1040 -c 2 -a 0 -i 24 -k RTR
r -t 10.103040775 -s 1 -d 1 -p tcp -e 1040 -c 2 -a 0 -i 12 -k AGT
+ -t 10.103040775 -s 1 -d -1 -p ack -e 40 -c 2 -a 0 -i 25 -k AGT 
- -t 10.103040775 -s 1 -d -1 -p ack -e 40 -c 2 -a 0 -i 25 -k AGT
h -t 10.103040775 -s 1 -d -1 -p ack -e 40 -c 2 -a 0 -i 25 -k AGT
+ -t 10.103040775 -s 1 -d 0 -p ack -e 40 -c 2 -a 0 -i 25 -k RTR 
- -t 10.103040775 -s 1 -d 0 -p ack -e 40 -c 2 -a 0 -i 25 -k RTR
h -t 10.103040775 -s 1 -d 0 -p ack -e 40 -c 2 -a 0 -i 25 -k RTR
r -t 10.104926053 -s 0 -d 0 -p ack -e 40 -c 2 -a 0 -i 25 -k AGT
+ -t 10.104926053 -s 0 -d -1 -p tcp -e 1040 -c 2 -a 0 -i 26 -k AGT 
- -t 10.104926053 -s 0 -d -1 -p tcp -e 1040 -c 2 -a 0 -i 26 -k AGT
h -t 10.104926053 -s 0 -d -1 -p tcp -e 1040 -c 2 -a 0 -i 26 -k AGT
+ -t 10.104926053 -s 0 -d -1 -p tcp -e 1040 -c 2 -a 0 -i 27 -k AGT 
- -t 10.104926053 -s 0 -d -1 -p tcp -e 1040 -c 2 -a 0 -i 27 -k AGT
h -t 10.104926053 -s 0 -d -1 -p tcp -e 1040 -c 2 -a 0 -i 27 -k AGT
+ -t 10.104926053 -s 0 -d 1 -p tcp -e 1040 -c 2 -a 0 -i 26 -k RTR 
- -t 10.104926053 -s 0 -d 1 -p tcp -e 1040 -c 2 -a 0 -i 26 -k RTR
h -t 10.104926053 -s 0 -d 1 -p tcp -e 1040 -c 2 -a 0 -i 26 -k RTR
+ -t 10.104926053 -s 0 -d 1 -p tcp -e 1040 -c 2 -a 0 -i 27 -k RTR 
- -t 10.104926053 -s 0 -d 1 -p tcp -e 1040 -c 2 -a 0 -i 27 -k RTR
h -t 10.104926053 -s 0 -d 1 -p tcp -e 1040 -c 2 -a 0 -i 27 -k RTR
r -t 10.115131331 -s 1 -d 1 -p tcp -e 1040 -c 2 -a 0 -i 14 -k AGT
+ -t 10.115131331 -s 1 -d -1 -p ack -e 40 -c 2 -a 0 -i 28 -k AGT 
- -t 10.115131331 -s 1 -d -1 -p ack -e 40 -c 2 -a 0 -i 28 -k AGT
h -t 10.115131331 -s 1 -d -1 -p ack -e 40 -c 2 -a 0 -i 28 -k AGT
+ -t 10.115131331 -s 1 -d 0 -p ack -e 40 -c 2 -a 0 -i 28 -k RTR 
- -t 10.115131331 -s 1 -d 0 -p ack -e 40 -c 2 -a 0 -i 28 -k RTR
h -t 10.115131331 -s 1 -d 0 -p ack -e 40 -c 2 -a 0 -i 28 -k RTR
r -t 10.125357036 -s 1 -d 1 -p tcp -e 1040 -c 2 -a 0 -i 15 -k AGT
+ -t 10.125357036 -s 1 -d -1 -p ack -e 40 -c 2 -a 0 -i 29 -k AGT 
- -t 10.125357036 -s 1 -d -1 -p ack -e 40 -c 2 -a 0 -i 29 -k AGT
h -t 10.125357036 -s 1 -d -1 -p ack -e 40 -c 2 -a 0 -i 29 -k AGT
+ -t 10.125357036 -s 1 -d 0 -p ack -e 40 -c 2 -a 0 -i 29 -k RTR 
- -t 10.125357036 -s 1 -d 0 -p ack -e 40 -c 2 -a 0 -i 29 -k RTR
h -t 10.125357036 -s 1 -d 0 -p ack -e 40 -c 2 -a 0 -i 29 -k RTR
r -t 10.127362315 -s 0 -d 0 -p ack -e 40 -c 2 -a 0 -i 28 -k AGT
+ -t 10.127362315 -s 0 -d -1 -p tcp -e 1040 -c 2 -a 0 -i 30 -k AGT 
- -t 10.127362315 -s 0 -d -1 -p tcp -e 1040 -c 2 -a 0 -i 30 -k AGT
h -t 10.127362315 -s 0 -d -1 -p tcp -e 1040 -c 2 -a 0 -i 30 -k AGT
+ -t 10.127362315 -s 0 -d -1 -p tcp -e 1040 -c 2 -a 0 -i 31 -k AGT 
- -t 10.127362315 -s 0 -d -1 -p tcp -e 1040 -c 2 -a 0 -i 31 -k AGT
h -t 10.127362315 -s 0 -d -1 -p tcp -e 1040 -c 2 -a 0 -i 31 -k AGT
+ -t 10.127362315 -s 0 -d 1 -p tcp -e 1040 -c 2 -a 0 -i 30 -k RTR 
- -t 10.127362315 -s 0 -d 1 -p tcp -e 1040 -c 2 -a 0 -i 30 -k RTR
h -t 10.127362315 -s 0 -d 1 -p tcp -e 1040 -c 2 -a 0 -i 30 -k RTR
+ -t 10.127362315 -s 0 -d 1 -p tcp -e 1040 -c 2 -a 0 -i 31 -k RTR 
- -t 10.127362315 -s 0 -d 1 -p tcp -e 1040 -c 2 -a 0 -i 31 -k RTR
h -t 10.127362315 -s 0 -d 1 -p tcp -e 1040 -c 2 -a 0 -i 31 -k RTR
r -t 10.139334447 -s 1 -d 1 -p tcp -e 1040 -c 2 -a 0 -i 18 -k AGT
+ -t 10.139334447 -s 1 -d -1 -p ack -e 40 -c 2 -a 0 -i 32 -k AGT 
- -t 10.139334447 -s 1 -d -1 -p ack -e 40 -c 2 -a 0 -i 32 -k AGT
h -t 10.139334447 -s 1 -d -1 -p ack -e 40 -c 2 -a 0 -i 32 -k AGT
+ -t 10.139334447 -s 1 -d 0 -p ack -e 40 -c 2 -a 0 -i 32 -k RTR 
- -t 10.139334447 -s 1 -d 0 -p ack -e 40 -c 2 -a 0 -i 32 -k RTR
h -t 10.139334447 -s 1 -d 0 -p ack -e 40 -c 2 -a 0 -i 32 -k RTR
r -t 10.141259727 -s 0 -d 0 -p ack -e 40 -c 2 -a 0 -i 29 -k AGT
+ -t 10.141259727 -s 0 -d -1 -p tcp -e 1040 -c 2 -a 0 -i 33 -k AGT 
- -t 10.141259727 -s 0 -d -1 -p tcp -e 1040 -c 2 -a 0 -i 33 -k AGT
h -t 10.141259727 -s 0 -d -1 -p tcp -e 1040 -c 2 -a 0 -i 33 -k AGT
+ -t 10.141259727 -s 0 -d -1 -p tcp -e 1040 -c 2 -a 0 -i 34 -k AGT 
- -t 10.141259727 -s 0 -d -1 -p tcp -e 1040 -c 2 -a 0 -i 34 -k AGT
h -t 10.141259727 -s 0 -d -1 -p tcp -e 1040 -c 2 -a 0 -i 34 -k AGT
+ -t 10.141259727 -s 0 -d 1 -p tcp -e 1040 -c 2 -a 0 -i 33 -k RTR 
- -t 10.141259727 -s 0 -d 1 -p tcp -e 1040 -c 2 -a 0 -i 33 -k RTR
h -t 10.141259727 -s 0 -d 1 -p tcp -e 1040 -c 2 -a 0 -i 33 -k RTR
+ -t 10.141259727 -s 0 -d 1 -p tcp -e 1040 -c 2 -a 0 -i 34 -k RTR 
- -t 10.141259727 -s 0 -d 1 -p tcp -e 1040 -c 2 -a 0 -i 34 -k RTR
h -t 10.141259727 -s 0 -d 1 -p tcp -e 1040 -c 2 -a 0 -i 34 -k RTR
r -t 10.143225434 -s 0 -d 0 -p ack -e 40 -c 2 -a 0 -i 32 -k AGT
+ -t 10.143225434 -s 0 -d -1 -p tcp -e 1040 -c 2 -a 0 -i 35 -k AGT 
- -t 10.143225434 -s 0 -d -1 -p tcp -e 1040 -c 2 -a 0 -i 35 -k AGT
h -t 10.143225434 -s 0 -d -1 -p tcp -e 1040 -c 2 -a 0 -i 35 -k AGT
+ -t 10.143225434 -s 0 -d -1 -p tcp -e 1040 -c 2 -a 0 -i 36 -k AGT 
- -t 10.143225434 -s 0 -d -1 -p tcp -e 1040 -c 2 -a 0 -i 36 -k AGT
h -t 10.143225434 -s 0 -d -1 -p tcp -e 1040 -c 2 -a 0 -i 36 -k AGT
+ -t 10.143225434 -s 0 -d 1 -p tcp -e 1040 -c 2 -a 0 -i 35 -k RTR 
- -t 10.143225434 -s 0 -d 1 -p tcp -e 1040 -c 2 -a 0 -i 35 -k RTR
h -t 10.143225434 -s 0 -d 1 -p tcp -e 1040 -c 2 -a 0 -i 35 -k RTR
+ -t 10.143225434 -s 0 -d 1 -p tcp -e 1040 -c 2 -a 0 -i 36 -k RTR 
- -t 10.143225434 -s 0 -d 1 -p tcp -e 1040 -c 2 -a 0 -i 36 -k RTR
h -t 10.143225434 -s 0 -d 1 -p tcp -e 1040 -c 2 -a 0 -i 36 -k RTR
r -t 10.153170714 -s 1 -d 1 -p tcp -e 1040 -c 2 -a 0 -i 19 -k AGT
+ -t 10.153170714 -s 1 -d -1 -p ack -e 40 -c 2 -a 0 -i 37 -k AGT 
- -t 10.153170714 -s 1 -d -1 -p ack -e 40 -c 2 -a 0 -i 37 -k AGT
h -t 10.153170714 -s 1 -d -1 -p ack -e 40 -c 2 -a 0 -i 37 -k AGT
+ -t 10.153170714 -s 1 -d 0 -p ack -e 40 -c 2 -a 0 -i 37 -k RTR 
- -t 10.153170714 -s 1 -d 0 -p ack -e 40 -c 2 -a 0 -i 37 -k RTR
h -t 10.153170714 -s 1 -d 0 -p ack -e 40 -c 2 -a 0 -i 37 -k RTR
r -t 10.163196421 -s 1 -d 1 -p tcp -e 1040 -c 2 -a 0 -i 21 -k AGT
+ -t 10.163196421 -s 1 -d -1 -p ack -e 40 -c 2 -a 0 -i 38 -k AGT 
- -t 10.163196421 -s 1 -d -1 -p ack -e 40 -c 2 -a 0 -i 38 -k AGT
h -t 10.163196421 -s 1 -d -1 -p ack -e 40 -c 2 -a 0 -i 38 -k AGT
+ -t 10.163196421 -s 1 -d 0 -p ack -e 40 -c 2 -a 0 -i 38 -k RTR 
- -t 10.163196421 -s 1 -d 0 -p ack -e 40 -c 2 -a 0 -i 38 -k RTR
h -t 10.163196421 -s 1 -d 0 -p ack -e 40 -c 2 -a 0 -i 38 -k RTR
r -t 10.165101702 -s 0 -d 0 -p ack -e 40 -c 2 -a 0 -i 37 -k AGT
+ -t 10.165101702 -s 0 -d -1 -p tcp -e 1040 -c 2 -a 0 -i 39 -k AGT 
- -t 10.165101702 -s 0 -d -1 -p tcp -e 1040 -c 2 -a 0 -i 39 -k AGT
h -t 10.165101702 -s 0 -d -1 -p tcp -e 1040 -c 2 -a 0 -i 39 -k AGT
+ -t 10.165101702 -s 0 -d -1 -p tcp -e 1040 -c 2 -a 0 -i 40 -k AGT 
- -t 10.165101702 -s 0 -d -1 -p tcp -e 1040 -c 2 -a 0 -i 40 -k AGT
h -t 10.165101702 -s 0 -d -1 -p tcp -e 1040 -c 2 -a 0 -i 40 -k AGT
+ -t 10.165101702 -s 0 -d 1 -p tcp -e 1040 -c 2 -a 0 -i 39 -k RTR 
- -t 10.165101702 -s 0 -d 1 -p tcp -e 1040 -c 2 -a 0 -i 39 -k RTR
h -t 10.165101702 -s 0 -d 1 -p tcp -e 1040 -c 2 -a 0 -i 39 -k RTR
+ -t 10.165101702 -s 0 -d 1 -p tcp -e 1040 -c 2 -a 0 -i 40 -k RTR 
- -t 10.165101702 -s 0 -d 1 -p tcp -e 1040 -c 2 -a 0 -i 40 -k RTR
h -t 10.165101702 -s 0 -d 1 -p tcp -e 1040 -c 2 -a 0 -i 40 -k RTR
r -t 10.174946983 -s 1 -d 1 -p tcp -e 1040 -c 2 -a 0 -i 22 -k AGT
+ -t 10.174946983 -s 1 -d -1 -p ack -e 40 -c 2 -a 0 -i 41 -k AGT 
- -t 10.174946983 -s 1 -d -1 -p ack -e 40 -c 2 -a 0 -i 41 -k AGT
h -t 10.174946983 -s 1 -d -1 -p ack -e 40 -c 2 -a 0 -i 41 -k AGT
+ -t 10.174946983 -s 1 -d 0 -p ack -e 40 -c 2 -a 0 -i 41 -k RTR 
- -t 10.174946983 -s 1 -d 0 -p ack -e 40 -c 2 -a 0 -i 41 -k RTR
h -t 10.174946983 -s 1 -d 0 -p ack -e 40 -c 2 -a 0 -i 41 -k RTR
r -t 10.184992692 -s 1 -d 1 -p tcp -e 1040 -c 2 -a 0 -i 23 -k AGT
+ -t 10.184992692 -s 1 -d -1 -p ack -e 40 -c 2 -a 0 -i 42 -k AGT 
- -t 10.184992692 -s 1 -d -1 -p ack -e 40 -c 2 -a 0 -i 42 -k AGT
h -t 10.184992692 -s 1 -d -1 -p ack -e 40 -c 2 -a 0 -i 42 -k AGT
+ -t 10.184992692 -s 1 -d 0 -p ack -e 40 -c 2 -a 0 -i 42 -k RTR 
- -t 10.184992692 -s 1 -d 0 -p ack -e 40 -c 2 -a 0 -i 42 -k RTR
h -t 10.184992692 -s 1 -d 0 -p ack -e 40 -c 2 -a 0 -i 42 -k RTR
r -t 10.195018401 -s 1 -d 1 -p tcp -e 1040 -c 2 -a 0 -i 24 -k AGT
+ -t 10.195018401 -s 1 -d -1 -p ack -e 40 -c 2 -a 0 -i 43 -k AGT 
- -t 10.195018401 -s 1 -d -1 -p ack -e 40 -c 2 -a 0 -i 43 -k AGT
h -t 10.195018401 -s 1 -d -1 -p ack -e 40 -c 2 -a 0 -i 43 -k AGT
+ -t 10.195018401 -s 1 -d 0 -p ack -e 40 -c 2 -a 0 -i 43 -k RTR 
- -t 10.195018401 -s 1 -d 0 -p ack -e 40 -c 2 -a 0 -i 43 -k RTR
h -t 10.195018401 -s 1 -d 0 -p ack -e 40 -c 2 -a 0 -i 43 -k RTR
r -t 10.196923684 -s 0 -d 0 -p ack -e 40 -c 2 -a 0 -i 38 -k AGT
+ -t 10.196923684 -s 0 -d -1 -p tcp -e 1040 -c 2 -a 0 -i 44 -k AGT 
- -t 10.196923684 -s 0 -d -1 -p tcp -e 1040 -c 2 -a 0 -i 44 -k AGT
h -t 10.196923684 -s 0 -d -1 -p tcp -e 1040 -c 2 -a 0 -i 44 -k AGT
+ -t 10.196923684 -s 0 -d -1 -p tcp -e 1040 -c 2 -a 0 -i 45 -k AGT 
- -t 10.196923684 -s 0 -d -1 -p tcp -e 1040 -c 2 -a 0 -i 45 -k AGT
h -t 10.196923684 -s 0 -d -1 -p tcp -e 1040 -c 2 -a 0 -i 45 -k AGT
+ -t 10.196923684 -s 0 -d 1 -p tcp -e 1040 -c 2 -a 0 -i 44 -k RTR 
- -t 10.196923684 -s 0 -d 1 -p tcp -e 1040 -c 2 -a 0 -i 44 -k RTR
h -t 10.196923684 -s 0 -d 1 -p tcp -e 1040 -c 2 -a 0 -i 44 -k RTR
+ -t 10.196923684 -s 0 -d 1 -p tcp -e 1040 -c 2 -a 0 -i 45 -k RTR 
- -t 10.196923684 -s 0 -d 1 -p tcp -e 1040 -c 2 -a 0 -i 45 -k RTR
h -t 10.196923684 -s 0 -d 1 -p tcp -e 1040 -c 2 -a 0 -i 45 -k RTR
r -t 10.198809394 -s 0 -d 0 -p ack -e 40 -c 2 -a 0 -i 41 -k AGT
+ -t 10.198809394 -s 0 -d -1 -p tcp -e 1040 -c 2 -a 0 -i 46 -k AGT 
- -t 10.198809394 -s 0 -d -1 -p tcp -e 1040 -c 2 -a 0 -i 46 -k AGT
h -t 10.198809394 -s 0 -d -1 -p tcp -e 1040 -c 2 -a 0 -i 46 -k AGT
+ -t 10.198809394 -s 0 -d -1 -p tcp -e 1040 -c 2 -a 0 -i 47 -k AGT 
- -t 10.198809394 -s 0 -d -1 -p tcp -e 1040 -c 2 -a 0 -i 47 -k AGT
h -t 10.198809394 -s 0 -d -1 -p tcp -e 1040 -c 2 -a 0 -i 47 -k AGT
+ -t 10.198809394 -s 0 -d 1 -p tcp -e 1040 -c 2 -a 0 -i 46 -k RTR 
- -t 10.198809394 -s 0 -d 1 -p tcp -e 1040 -c 2 -a 0 -i 46 -k RTR
h -t 10.198809394 -s 0 -d 1 -p tcp -e 1040 -c 2 -a 0 -i 46 -k RTR
+ -t 10.198809394 -s 0 -d 1 -p tcp -e 1040 -c 2 -a 0 -i 47 -k RTR 
- -t 10.198809394 -s 0 -d 1 -p tcp -e 1040 -c 2 -a 0 -i 47 -k RTR
h -t 10.198809394 -s 0 -d 1 -p tcp -e 1040 -c 2 -a 0 -i 47 -k RTR
r -t 10.200755104 -s 0 -d 0 -p ack -e 40 -c 2 -a 0 -i 42 -k AGT
+ -t 10.200755104 -s 0 -d -1 -p tcp -e 1040 -c 2 -a 0 -i 48 -k AGT 
- -t 10.200755104 -s 0 -d -1 -p tcp -e 1040 -c 2 -a 0 -i 48 -k AGT
h -t 10.200755104 -s 0 -d -1 -p tcp -e 1040 -c 2 -a 0 -i 48 -k AGT
+ -t 10.200755104 -s 0 -d -1 -p tcp -e 1040 -c 2 -a 0 -i 49 -k AGT 
- -t 10.200755104 -s 0 -d -1 -p tcp -e 1040 -c 2 -a 0 -i 49 -k AGT
h -t 10.200755104 -s 0 -d -1 -p tcp -e 1040 -c 2 -a 0 -i 49 -k AGT
+ -t 10.200755104 -s 0 -d 1 -p tcp -e 1040 -c 2 -a 0 -i 48 -k RTR 
- -t 10.200755104 -s 0 -d 1 -p tcp -e 1040 -c 2 -a 0 -i 48 -k RTR
h -t 10.200755104 -s 0 -d 1 -p tcp -e 1040 -c 2 -a 0 -i 48 -k RTR
+ -t 10.200755104 -s 0 -d 1 -p tcp -e 1040 -c 2 -a 0 -i 49 -k RTR 
- -t 10.200755104 -s 0 -d 1 -p tcp -e 1040 -c 2 -a 0 -i 49 -k RTR
h -t 10.200755104 -s 0 -d 1 -p tcp -e 1040 -c 2 -a 0 -i 49 -k RTR
r -t 10.210900387 -s 1 -d 1 -p tcp -e 1040 -c 2 -a 0 -i 26 -k AGT
+ -t 10.210900387 -s 1 -d -1 -p ack -e 40 -c 2 -a 0 -i 50 -k AGT 
- -t 10.210900387 -s 1 -d -1 -p ack -e 40 -c 2 -a 0 -i 50 -k AGT
h -t 10.210900387 -s 1 -d -1 -p ack -e 40 -c 2 -a 0 -i 50 -k AGT
+ -t 10.210900387 -s 1 -d 0 -p ack -e 40 -c 2 -a 0 -i 50 -k RTR 
- -t 10.210900387 -s 1 -d 0 -p ack -e 40 -c 2 -a 0 -i 50 -k RTR
h -t 10.210900387 -s 1 -d 0 -p ack -e 40 -c 2 -a 0 -i 50 -k RTR
r -t 10.212745671 -s 0 -d 0 -p ack -e 40 -c 2 -a 0 -i 43 -k AGT
+ -t 10.212745671 -s 0 -d -1 -p tcp -e 1040 -c 2 -a 0 -i 51 -k AGT 
- -t 10.212745671 -s 0 -d -1 -p tcp -e 1040 -c 2 -a 0 -i 51 -k AGT
h -t 10.212745671 -s 0 -d -1 -p tcp -e 1040 -c 2 -a 0 -i 51 -k AGT
+ -t 10.212745671 -s 0 -d -1 -p tcp -e 1040 -c 2 -a 0 -i 52 -k AGT 
- -t 10.212745671 -s 0 -d -1 -p tcp -e 1040 -c 2 -a 0 -i 52 -k AGT
h -t 10.212745671 -s 0 -d -1 -p tcp -e 1040 -c 2 -a 0 -i 52 -k AGT
+ -t 10.212745671 -s 0 -d 1 -p tcp -e 1040 -c 2 -a 0 -i 51 -k RTR 
- -t 10.212745671 -s 0 -d 1 -p tcp -e 1040 -c 2 -a 0 -i 51 -k RTR
h -t 10.212745671 -s 0 -d 1 -p tcp -e 1040 -c 2 -a 0 -i 51 -k RTR
+ -t 10.212745671 -s 0 -d 1 -p tcp -e 1040 -c 2 -a 0 -i 52 -k RTR 
- -t 10.212745671 -s 0 -d 1 -p tcp -e 1040 -c 2 -a 0 -i 52 -k RTR
h -t 10.212745671 -s 0 -d 1 -p tcp -e 1040 -c 2 -a 0 -i 52 -k RTR
r -t 10.214851382 -s 0 -d 0 -p ack -e 40 -c 2 -a 0 -i 50 -k AGT
+ -t 10.214851382 -s 0 -d -1 -p tcp -e 1040 -c 2 -a 0 -i 53 -k AGT 
- -t 10.214851382 -s 0 -d -1 -p tcp -e 1040 -c 2 -a 0 -i 53 -k AGT
h -t 10.214851382 -s 0 -d -1 -p tcp -e 1040 -c 2 -a 0 -i 53 -k AGT
+ -t 10.214851382 -s 0 -d -1 -p tcp -e 1040 -c 2 -a 0 -i 54 -k AGT 
- -t 10.214851382 -s 0 -d -1 -p tcp -e 1040 -c 2 -a 0 -i 54 -k AGT
h -t 10.214851382 -s 0 -d -1 -p tcp -e 1040 -c 2 -a 0 -i 54 -k AGT
+ -t 10.214851382 -s 0 -d 1 -p tcp -e 1040 -c 2 -a 0 -i 53 -k RTR 
- -t 10.214851382 -s 0 -d 1 -p tcp -e 1040 -c 2 -a 0 -i 53 -k RTR
h -t 10.214851382 -s 0 -d 1 -p tcp -e 1040 -c 2 -a 0 -i 53 -k RTR
+ -t 10.214851382 -s 0 -d 1 -p tcp -e 1040 -c 2 -a 0 -i 54 -k RTR 
- -t 10.214851382 -s 0 -d 1 -p tcp -e 1040 -c 2 -a 0 -i 54 -k RTR
h -t 10.214851382 -s 0 -d 1 -p tcp -e 1040 -c 2 -a 0 -i 54 -k RTR
r -t 10.224876666 -s 1 -d 1 -p tcp -e 1040 -c 2 -a 0 -i 27 -k AGT
+ -t 10.224876666 -s 1 -d -1 -p ack -e 40 -c 2 -a 0 -i 55 -k AGT 
- -t 10.224876666 -s 1 -d -1 -p ack -e 40 -c 2 -a 0 -i 55 -k AGT
h -t 10.224876666 -s 1 -d -1 -p ack -e 40 -c 2 -a 0 -i 55 -k AGT
+ -t 10.224876666 -s 1 -d 0 -p ack -e 40 -c 2 -a 0 -i 55 -k RTR 
- -t 10.224876666 -s 1 -d 0 -p ack -e 40 -c 2 -a 0 -i 55 -k RTR
h -t 10.224876666 -s 1 -d 0 -p ack -e 40 -c 2 -a 0 -i 55 -k RTR
r -t 10.226981950 -s 0 -d 0 -p ack -e 40 -c 2 -a 0 -i 55 -k AGT
+ -t 10.226981950 -s 0 -d -1 -p tcp -e 1040 -c 2 -a 0 -i 56 -k AGT 
- -t 10.226981950 -s 0 -d -1 -p tcp -e 1040 -c 2 -a 0 -i 56 -k AGT
h -t 10.226981950 -s 0 -d -1 -p tcp -e 1040 -c 2 -a 0 -i 56 -k AGT
+ -t 10.226981950 -s 0 -d -1 -p tcp -e 1040 -c 2 -a 0 -i 57 -k AGT 
- -t 10.226981950 -s 0 -d -1 -p tcp -e 1040 -c 2 -a 0 -i 57 -k AGT
h -t 10.226981950 -s 0 -d -1 -p tcp -e 1040 -c 2 -a 0 -i 57 -k AGT
+ -t 10.226981950 -s 0 -d 1 -p tcp -e 1040 -c 2 -a 0 -i 56 -k RTR 
- -t 10.226981950 -s 0 -d 1 -p tcp -e 1040 -c 2 -a 0 -i 56 -k RTR
h -t 10.226981950 -s 0 -d 1 -p tcp -e 1040 -c 2 -a 0 -i 56 -k RTR
+ -t 10.226981950 -s 0 -d 1 -p tcp -e 1040 -c 2 -a 0 -i 57 -k RTR 
- -t 10.226981950 -s 0 -d 1 -p tcp -e 1040 -c 2 -a 0 -i 57 -k RTR
h -t 10.226981950 -s 0 -d 1 -p tcp -e 1040 -c 2 -a 0 -i 57 -k RTR
r -t 10.237007234 -s 1 -d 1 -p tcp -e 1040 -c 2 -a 0 -i 30 -k AGT
+ -t 10.237007234 -s 1 -d -1 -p ack -e 40 -c 2 -a 0 -i 58 -k AGT 
- -t 10.237007234 -s 1 -d -1 -p ack -e 40 -c 2 -a 0 -i 58 -k AGT
h -t 10.237007234 -s 1 -d -1 -p ack -e 40 -c 2 -a 0 -i 58 -k AGT
+ -t 10.237007234 -s 1 -d 0 -p ack -e 40 -c 2 -a 0 -i 58 -k RTR 
- -t 10.237007234 -s 1 -d 0 -p ack -e 40 -c 2 -a 0 -i 58 -k RTR
h -t 10.237007234 -s 1 -d 0 -p ack -e 40 -c 2 -a 0 -i 58 -k RTR
r -t 10.239052519 -s 0 -d 0 -p ack -e 40 -c 2 -a 0 -i 58 -k AGT
+ -t 10.239052519 -s 0 -d -1 -p tcp -e 1040 -c 2 -a 0 -i 59 -k AGT 
- -t 10.239052519 -s 0 -d -1 -p tcp -e 1040 -c 2 -a 0 -i 59 -k AGT
h -t 10.239052519 -s 0 -d -1 -p tcp -e 1040 -c 2 -a 0 -i 59 -k AGT
+ -t 10.239052519 -s 0 -d 1 -p tcp -e 1040 -c 2 -a 0 -i 59 -k RTR 
- -t 10.239052519 -s 0 -d 1 -p tcp -e 1040 -c 2 -a 0 -i 59 -k RTR
h -t 10.239052519 -s 0 -d 1 -p tcp -e 1040 -c 2 -a 0 -i 59 -k RTR
r -t 10.248977803 -s 1 -d 1 -p tcp -e 1040 -c 2 -a 0 -i 31 -k AGT
+ -t 10.248977803 -s 1 -d -1 -p ack -e 40 -c 2 -a 0 -i 60 -k AGT 
- -t 10.248977803 -s 1 -d -1 -p ack -e 40 -c 2 -a 0 -i 60 -k AGT
h -t 10.248977803 -s 1 -d -1 -p ack -e 40 -c 2 -a 0 -i 60 -k AGT
+ -t 10.248977803 -s 1 -d 0 -p ack -e 40 -c 2 -a 0 -i 60 -k RTR 
- -t 10.248977803 -s 1 -d 0 -p ack -e 40 -c 2 -a 0 -i 60 -k RTR
h -t 10.248977803 -s 1 -d 0 -p ack -e 40 -c 2 -a 0 -i 60 -k RTR
r -t 10.250863089 -s 0 -d 0 -p ack -e 40 -c 2 -a 0 -i 60 -k AGT
+ -t 10.250863089 -s 0 -d -1 -p tcp -e 1040 -c 2 -a 0 -i 61 -k AGT 
- -t 10.250863089 -s 0 -d -1 -p tcp -e 1040 -c 2 -a 0 -i 61 -k AGT
h -t 10.250863089 -s 0 -d -1 -p tcp -e 1040 -c 2 -a 0 -i 61 -k AGT
+ -t 10.250863089 -s 0 -d 1 -p tcp -e 1040 -c 2 -a 0 -i 61 -k RTR 
- -t 10.250863089 -s 0 -d 1 -p tcp -e 1040 -c 2 -a 0 -i 61 -k RTR
h -t 10.250863089 -s 0 -d 1 -p tcp -e 1040 -c 2 -a 0 -i 61 -k RTR
r -t 10.260848374 -s 1 -d 1 -p tcp -e 1040 -c 2 -a 0 -i 33 -k AGT
+ -t 10.260848374 -s 1 -d -1 -p ack -e 40 -c 2 -a 0 -i 62 -k AGT 
- -t 10.260848374 -s 1 -d -1 -p ack -e 40 -c 2 -a 0 -i 62 -k AGT
h -t 10.260848374 -s 1 -d -1 -p ack -e 40 -c 2 -a 0 -i 62 -k AGT
+ -t 10.260848374 -s 1 -d 0 -p ack -e 40 -c 2 -a 0 -i 62 -k RTR 
- -t 10.260848374 -s 1 -d 0 -p ack -e 40 -c 2 -a 0 -i 62 -k RTR
h -t 10.260848374 -s 1 -d 0 -p ack -e 40 -c 2 -a 0 -i 62 -k RTR
r -t 10.270674088 -s 1 -d 1 -p tcp -e 1040 -c 2 -a 0 -i 34 -k AGT
+ -t 10.270674088 -s 1 -d -1 -p ack -e 40 -c 2 -a 0 -i 63 -k AGT 
- -t 10.270674088 -s 1 -d -1 -p ack -e 40 -c 2 -a 0 -i 63 -k AGT
h -t 10.270674088 -s 1 -d -1 -p ack -e 40 -c 2 -a 0 -i 63 -k AGT
+ -t 10.270674088 -s 1 -d 0 -p ack -e 40 -c 2 -a 0 -i 63 -k RTR 
- -t 10.270674088 -s 1 -d 0 -p ack -e 40 -c 2 -a 0 -i 63 -k RTR
h -t 10.270674088 -s 1 -d 0 -p ack -e 40 -c 2 -a 0 -i 63 -k RTR
r -t 10.280739804 -s 1 -d 1 -p tcp -e 1040 -c 2 -a 0 -i 35 -k AGT
+ -t 10.280739804 -s 1 -d -1 -p ack -e 40 -c 2 -a 0 -i 64 -k AGT 
- -t 10.280739804 -s 1 -d -1 -p ack -e 40 -c 2 -a 0 -i 64 -k AGT
h -t 10.280739804 -s 1 -d -1 -p ack -e 40 -c 2 -a 0 -i 64 -k AGT
+ -t 10.280739804 -s 1 -d 0 -p ack -e 40 -c 2 -a 0 -i 64 -k RTR 
- -t 10.280739804 -s 1 -d 0 -p ack -e 40 -c 2 -a 0 -i 64 -k RTR
h -t 10.280739804 -s 1 -d 0 -p ack -e 40 -c 2 -a 0 -i 64 -k RTR
r -t 10.282625090 -s 0 -d 0 -p ack -e 40 -c 2 -a 0 -i 62 -k AGT
+ -t 10.282625090 -s 0 -d -1 -p tcp -e 1040 -c 2 -a 0 -i 65 -k AGT 
- -t 10.282625090 -s 0 -d -1 -p tcp -e 1040 -c 2 -a 0 -i 65 -k AGT
h -t 10.282625090 -s 0 -d -1 -p tcp -e 1040 -c 2 -a 0 -i 65 -k AGT
+ -t 10.282625090 -s 0 -d 1 -p tcp -e 1040 -c 2 -a 0 -i 65 -k RTR 
- -t 10.282625090 -s 0 -d 1 -p tcp -e 1040 -c 2 -a 0 -i 65 -k RTR
h -t 10.282625090 -s 0 -d 1 -p tcp -e 1040 -c 2 -a 0 -i 65 -k RTR
r -t 10.292690377 -s 1 -d 1 -p tcp -e 1040 -c 2 -a 0 -i 36 -k AGT
+ -t 10.292690377 -s 1 -d -1 -p ack -e 40 -c 2 -a 0 -i 66 -k AGT 