n -t * -s 0  -x 236.00140737183457 -y 380.52295873897287 -Z 0 -z 30  -v circle -c black
n -t * -s 1  -x 311.70940739647921 -y 320.00809010118621 -Z 0 -z 30  -v circle -c black
n -t * -s 2  -x 469.96291329616821 -y 133.34701495866619 -Z 0 -z 30  -v circle -c black
n -t * -s 3  -x 454.10051287808477 -y 53.855953576907488 -Z 0 -z 30  -v circle -c black
n -t * -s 4  -x 446.26470885531268 -y 296.76938499173588 -Z 0 -z 30  -v circle -c black
n -t * -s 5  -x 253.81694513085156 -y 321.1174513777334 -Z 0 -z 30  -v circle -c black
n -t * -s 6  -x 276.25663195562396 -y 36.170622536992013 -Z 0 -z 30  -v circle -c black
n -t * -s 7  -x 399.56622403094832 -y 7.6218305191126792 -Z 0 -z 30  -v circle -c black
n -t * -s 8  -x 125.13191840850371 -y 73.722153377589834 -Z 0 -z 30  -v circle -c black
n -t * -s 9  -x 310.28977144057387 -y 32.150881379913017 -Z 0 -z 30  -v circle -c black
V -t * -v 1.0a5 -a 0
W -t * -x 500 -y 400
A -t * -n 1 -p 0 -o 0x7fffffff -c 30 -a 1
A -t * -h 1 -m 1073741823 -s 0
+ -t 2.000000000 -s 0 -d -1 -p tcp -e 40 -c 2 -a 0 -i 0 -k AGT 
- -t 2.000000000 -s 0 -d -1 -p tcp -e 40 -c 2 -a 0 -i 0 -k AGT
h -t 2.000000000 -s 0 -d -1 -p tcp -e 40 -c 2 -a 0 -i 0 -k AGT
+ -t 2.001393394 -s 0 -d -1 -p DSR -e 32 -c 2 -a 0 -i 1 -k RTR 
- -t 2.001393394 -s 0 -d -1 -p DSR -e 32 -c 2 -a 0 -i 1 -k RTR
h -t 2.001393394 -s 0 -d -1 -p DSR -e 32 -c 2 -a 0 -i 1 -k RTR
+ -t 2.035398062 -s 0 -d -1 -p DSR -e 32 -c 2 -a 0 -i 2 -k RTR 
- -t 2.035398062 -s 0 -d -1 -p DSR -e 32 -c 2 -a 0 -i 2 -k RTR
h -t 2.035398062 -s 0 -d -1 -p DSR -e 32 -c 2 -a 0 -i 2 -k RTR
+ -t 2.040663804 -s 1 -d -1 -p DSR -e 48 -c 2 -a 0 -i 2 -k RTR 
- -t 2.040663804 -s 1 -d -1 -p DSR -e 48 -c 2 -a 0 -i 2 -k RTR
h -t 2.040663804 -s 1 -d -1 -p DSR -e 48 -c 2 -a 0 -i 2 -k RTR
+ -t 2.041268846 -s 5 -d -1 -p DSR -e 48 -c 2 -a 0 -i 2 -k RTR 
- -t 2.041268846 -s 5 -d -1 -p DSR -e 48 -c 2 -a 0 -i 2 -k RTR
h -t 2.041268846 -s 5 -d -1 -p DSR -e 48 -c 2 -a 0 -i 2 -k RTR
+ -t 2.041393892 -s 4 -d -1 -p DSR -e 48 -c 2 -a 0 -i 2 -k RTR 
- -t 2.041393892 -s 4 -d -1 -p DSR -e 48 -c 2 -a 0 -i 2 -k RTR
h -t 2.041393892 -s 4 -d -1 -p DSR -e 48 -c 2 -a 0 -i 2 -k RTR
+ -t 2.045545852 -s 2 -d -1 -p DSR -e 68 -c 2 -a 0 -i 2 -k RTR 
- -t 2.045545852 -s 2 -d -1 -p DSR -e 68 -c 2 -a 0 -i 2 -k RTR
h -t 2.045545852 -s 2 -d -1 -p DSR -e 68 -c 2 -a 0 -i 2 -k RTR
+ -t 2.047152902 -s 7 -d -1 -p DSR -e 92 -c 2 -a 0 -i 2 -k RTR 
- -t 2.047152902 -s 7 -d -1 -p DSR -e 92 -c 2 -a 0 -i 2 -k RTR
h -t 2.047152902 -s 7 -d -1 -p DSR -e 92 -c 2 -a 0 -i 2 -k RTR
+ -t 2.047885106 -s 6 -d -1 -p DSR -e 92 -c 2 -a 0 -i 2 -k RTR 
- -t 2.047885106 -s 6 -d -1 -p DSR -e 92 -c 2 -a 0 -i 2 -k RTR
h -t 2.047885106 -s 6 -d -1 -p DSR -e 92 -c 2 -a 0 -i 2 -k RTR
+ -t 2.052484039 -s 9 -d 2 -p DSR -e 60 -c 2 -a 0 -i 3 -k RTR 
- -t 2.052484039 -s 9 -d 2 -p DSR -e 60 -c 2 -a 0 -i 3 -k RTR
h -t 2.052484039 -s 9 -d 2 -p DSR -e 60 -c 2 -a 0 -i 3 -k RTR
+ -t 2.053346919 -s 3 -d -1 -p DSR -e 68 -c 2 -a 0 -i 2 -k RTR 
- -t 2.053346919 -s 3 -d -1 -p DSR -e 68 -c 2 -a 0 -i 2 -k RTR
h -t 2.053346919 -s 3 -d -1 -p DSR -e 68 -c 2 -a 0 -i 2 -k RTR
+ -t 2.054670872 -s 8 -d -1 -p DSR -e 120 -c 2 -a 0 -i 2 -k RTR 
- -t 2.054670872 -s 8 -d -1 -p DSR -e 120 -c 2 -a 0 -i 2 -k RTR
h -t 2.054670872 -s 8 -d -1 -p DSR -e 120 -c 2 -a 0 -i 2 -k RTR
+ -t 2.055831106 -s 9 -d 6 -p DSR -e 68 -c 2 -a 0 -i 5 -k RTR 
- -t 2.055831106 -s 9 -d 6 -p DSR -e 68 -c 2 -a 0 -i 5 -k RTR
h -t 2.055831106 -s 9 -d 6 -p DSR -e 68 -c 2 -a 0 -i 5 -k RTR
+ -t 2.057251258 -s 9 -d 7 -p DSR -e 68 -c 2 -a 0 -i 4 -k RTR 
- -t 2.057251258 -s 9 -d 7 -p DSR -e 68 -c 2 -a 0 -i 4 -k RTR
h -t 2.057251258 -s 9 -d 7 -p DSR -e 68 -c 2 -a 0 -i 4 -k RTR
+ -t 2.061500138 -s 2 -d 1 -p DSR -e 60 -c 2 -a 0 -i 3 -k RTR 
- -t 2.061500138 -s 2 -d 1 -p DSR -e 60 -c 2 -a 0 -i 3 -k RTR
h -t 2.061500138 -s 2 -d 1 -p DSR -e 60 -c 2 -a 0 -i 3 -k RTR
+ -t 2.062800326 -s 9 -d 3 -p DSR -e 60 -c 2 -a 0 -i 6 -k RTR 
- -t 2.062800326 -s 9 -d 3 -p DSR -e 60 -c 2 -a 0 -i 6 -k RTR
h -t 2.062800326 -s 9 -d 3 -p DSR -e 60 -c 2 -a 0 -i 6 -k RTR
+ -t 2.065880922 -s 9 -d 8 -p DSR -e 76 -c 2 -a 0 -i 7 -k RTR 
- -t 2.065880922 -s 9 -d 8 -p DSR -e 76 -c 2 -a 0 -i 7 -k RTR
h -t 2.065880922 -s 9 -d 8 -p DSR -e 76 -c 2 -a 0 -i 7 -k RTR
+ -t 2.072117002 -s 6 -d 2 -p DSR -e 68 -c 2 -a 0 -i 5 -k RTR 
- -t 2.072117002 -s 6 -d 2 -p DSR -e 68 -c 2 -a 0 -i 5 -k RTR
h -t 2.072117002 -s 6 -d 2 -p DSR -e 68 -c 2 -a 0 -i 5 -k RTR
+ -t 2.074287169 -s 2 -d 1 -p DSR -e 68 -c 2 -a 0 -i 5 -k RTR 
- -t 2.074287169 -s 2 -d 1 -p DSR -e 68 -c 2 -a 0 -i 5 -k RTR
h -t 2.074287169 -s 2 -d 1 -p DSR -e 68 -c 2 -a 0 -i 5 -k RTR
d -t 2.074287169 -s 2 -d 1 -p DSR -e 60 -c 2 -a 0 -i 3 -k IFQ
+ -t 2.081086765 -s 7 -d 2 -p DSR -e 68 -c 2 -a 0 -i 4 -k RTR 
- -t 2.081086765 -s 7 -d 2 -p DSR -e 68 -c 2 -a 0 -i 4 -k RTR
h -t 2.081086765 -s 7 -d 2 -p DSR -e 68 -c 2 -a 0 -i 4 -k RTR
+ -t 2.083197692 -s 1 -d 0 -p DSR -e 68 -c 2 -a 0 -i 5 -k RTR 
- -t 2.083197692 -s 1 -d 0 -p DSR -e 68 -c 2 -a 0 -i 5 -k RTR
h -t 2.083197692 -s 1 -d 0 -p DSR -e 68 -c 2 -a 0 -i 5 -k RTR
+ -t 2.088478954 -s 0 -d 1 -p tcp -e 88 -c 2 -a 0 -i 0 -k RTR 
- -t 2.088478954 -s 0 -d 1 -p tcp -e 88 -c 2 -a 0 -i 0 -k RTR
h -t 2.088478954 -s 0 -d 1 -p tcp -e 88 -c 2 -a 0 -i 0 -k RTR
+ -t 2.091087923 -s 1 -d 2 -p tcp -e 88 -c 2 -a 0 -i 0 -k RTR 
- -t 2.091087923 -s 1 -d 2 -p tcp -e 88 -c 2 -a 0 -i 0 -k RTR
h -t 2.091087923 -s 1 -d 2 -p tcp -e 88 -c 2 -a 0 -i 0 -k RTR
+ -t 2.093478370 -s 2 -d 6 -p tcp -e 88 -c 2 -a 0 -i 0 -k RTR 
- -t 2.093478370 -s 2 -d 6 -p tcp -e 88 -c 2 -a 0 -i 0 -k RTR
h -t 2.093478370 -s 2 -d 6 -p tcp -e 88 -c 2 -a 0 -i 0 -k RTR
+ -t 2.095598077 -s 2 -d 1 -p DSR -e 68 -c 2 -a 0 -i 4 -k RTR 
- -t 2.095598077 -s 2 -d 1 -p DSR -e 68 -c 2 -a 0 -i 4 -k RTR
h -t 2.095598077 -s 2 -d 1 -p DSR -e 68 -c 2 -a 0 -i 4 -k RTR
+ -t 2.097644162 -s 3 -d 4 -p DSR -e 60 -c 2 -a 0 -i 6 -k RTR 
- -t 2.097644162 -s 3 -d 4 -p DSR -e 60 -c 2 -a 0 -i 6 -k RTR
h -t 2.097644162 -s 3 -d 4 -p DSR -e 60 -c 2 -a 0 -i 6 -k RTR
+ -t 2.101491724 -s 1 -d 0 -p DSR -e 68 -c 2 -a 0 -i 4 -k RTR 
- -t 2.101491724 -s 1 -d 0 -p DSR -e 68 -c 2 -a 0 -i 4 -k RTR
h -t 2.101491724 -s 1 -d 0 -p DSR -e 68 -c 2 -a 0 -i 4 -k RTR
+ -t 2.109836126 -s 6 -d 9 -p tcp -e 88 -c 2 -a 0 -i 0 -k RTR 
- -t 2.109836126 -s 6 -d 9 -p tcp -e 88 -c 2 -a 0 -i 0 -k RTR
h -t 2.109836126 -s 6 -d 9 -p tcp -e 88 -c 2 -a 0 -i 0 -k RTR
+ -t 2.112010138 -s 8 -d 6 -p DSR -e 76 -c 2 -a 0 -i 7 -k RTR 
- -t 2.112010138 -s 8 -d 6 -p DSR -e 76 -c 2 -a 0 -i 7 -k RTR
h -t 2.112010138 -s 8 -d 6 -p DSR -e 76 -c 2 -a 0 -i 7 -k RTR
r -t 2.114399000 -s 9 -d 9 -p tcp -e 40 -c 2 -a 0 -i 0 -k AGT
+ -t 2.114399000 -s 9 -d -1 -p ack -e 40 -c 2 -a 0 -i 9 -k AGT 
- -t 2.114399000 -s 9 -d -1 -p ack -e 40 -c 2 -a 0 -i 9 -k AGT
h -t 2.114399000 -s 9 -d -1 -p ack -e 40 -c 2 -a 0 -i 9 -k AGT
+ -t 2.114399000 -s 9 -d 2 -p ack -e 84 -c 2 -a 0 -i 9 -k RTR 
- -t 2.114399000 -s 9 -d 2 -p ack -e 84 -c 2 -a 0 -i 9 -k RTR
h -t 2.114399000 -s 9 -d 2 -p ack -e 84 -c 2 -a 0 -i 9 -k RTR
+ -t 2.117775860 -s 2 -d 1 -p ack -e 84 -c 2 -a 0 -i 9 -k RTR 
- -t 2.117775860 -s 2 -d 1 -p ack -e 84 -c 2 -a 0 -i 9 -k RTR
h -t 2.117775860 -s 2 -d 1 -p ack -e 84 -c 2 -a 0 -i 9 -k RTR
+ -t 2.120074307 -s 1 -d 0 -p ack -e 84 -c 2 -a 0 -i 9 -k RTR 
- -t 2.120074307 -s 1 -d 0 -p ack -e 84 -c 2 -a 0 -i 9 -k RTR
h -t 2.120074307 -s 1 -d 0 -p ack -e 84 -c 2 -a 0 -i 9 -k RTR
+ -t 2.123891623 -s 4 -d 0 -p DSR -e 60 -c 2 -a 0 -i 6 -k RTR 
- -t 2.123891623 -s 4 -d 0 -p DSR -e 60 -c 2 -a 0 -i 6 -k RTR
h -t 2.123891623 -s 4 -d 0 -p DSR -e 60 -c 2 -a 0 -i 6 -k RTR
r -t 2.130989197 -s 0 -d 0 -p ack -e 40 -c 2 -a 0 -i 9 -k AGT
+ -t 2.130989197 -s 0 -d -1 -p tcp -e 1040 -c 2 -a 0 -i 10 -k AGT 
- -t 2.130989197 -s 0 -d -1 -p tcp -e 1040 -c 2 -a 0 -i 10 -k AGT
h -t 2.130989197 -s 0 -d -1 -p tcp -e 1040 -c 2 -a 0 -i 10 -k AGT
+ -t 2.130989197 -s 0 -d -1 -p tcp -e 1040 -c 2 -a 0 -i 11 -k AGT 
- -t 2.130989197 -s 0 -d -1 -p tcp -e 1040 -c 2 -a 0 -i 11 -k AGT
h -t 2.130989197 -s 0 -d -1 -p tcp -e 1040 -c 2 -a 0 -i 11 -k AGT
+ -t 2.130989197 -s 0 -d 4 -p tcp -e 1084 -c 2 -a 0 -i 10 -k RTR 
- -t 2.130989197 -s 0 -d 4 -p tcp -e 1084 -c 2 -a 0 -i 10 -k RTR
h -t 2.130989197 -s 0 -d 4 -p tcp -e 1084 -c 2 -a 0 -i 10 -k RTR
+ -t 2.130989197 -s 0 -d 4 -p tcp -e 1084 -c 2 -a 0 -i 11 -k RTR 
- -t 2.130989197 -s 0 -d 4 -p tcp -e 1084 -c 2 -a 0 -i 11 -k RTR
h -t 2.130989197 -s 0 -d 4 -p tcp -e 1084 -c 2 -a 0 -i 11 -k RTR
+ -t 2.141227460 -s 4 -d 3 -p tcp -e 1084 -c 2 -a 0 -i 10 -k RTR 
- -t 2.141227460 -s 4 -d 3 -p tcp -e 1084 -c 2 -a 0 -i 10 -k RTR
h -t 2.141227460 -s 4 -d 3 -p tcp -e 1084 -c 2 -a 0 -i 10 -k RTR
+ -t 2.151485890 -s 3 -d 9 -p tcp -e 1084 -c 2 -a 0 -i 10 -k RTR 
- -t 2.151485890 -s 3 -d 9 -p tcp -e 1084 -c 2 -a 0 -i 10 -k RTR
h -t 2.151485890 -s 3 -d 9 -p tcp -e 1084 -c 2 -a 0 -i 10 -k RTR
r -t 2.161823345 -s 9 -d 9 -p tcp -e 1040 -c 2 -a 0 -i 10 -k AGT
+ -t 2.161823345 -s 9 -d -1 -p ack -e 40 -c 2 -a 0 -i 12 -k AGT 
- -t 2.161823345 -s 9 -d -1 -p ack -e 40 -c 2 -a 0 -i 12 -k AGT
h -t 2.161823345 -s 9 -d -1 -p ack -e 40 -c 2 -a 0 -i 12 -k AGT
+ -t 2.161823345 -s 9 -d 2 -p ack -e 84 -c 2 -a 0 -i 12 -k RTR 
- -t 2.161823345 -s 9 -d 2 -p ack -e 84 -c 2 -a 0 -i 12 -k RTR
h -t 2.161823345 -s 9 -d 2 -p ack -e 84 -c 2 -a 0 -i 12 -k RTR
+ -t 2.165110481 -s 2 -d 1 -p ack -e 84 -c 2 -a 0 -i 12 -k RTR 
- -t 2.165110481 -s 2 -d 1 -p ack -e 84 -c 2 -a 0 -i 12 -k RTR
h -t 2.165110481 -s 2 -d 1 -p ack -e 84 -c 2 -a 0 -i 12 -k RTR
+ -t 2.167548929 -s 1 -d 0 -p ack -e 84 -c 2 -a 0 -i 12 -k RTR 
- -t 2.167548929 -s 1 -d 0 -p ack -e 84 -c 2 -a 0 -i 12 -k RTR
h -t 2.167548929 -s 1 -d 0 -p ack -e 84 -c 2 -a 0 -i 12 -k RTR
+ -t 2.177917511 -s 4 -d 3 -p tcp -e 1084 -c 2 -a 0 -i 11 -k RTR 
- -t 2.177917511 -s 4 -d 3 -p tcp -e 1084 -c 2 -a 0 -i 11 -k RTR
h -t 2.177917511 -s 4 -d 3 -p tcp -e 1084 -c 2 -a 0 -i 11 -k RTR
r -t 2.180194935 -s 0 -d 0 -p ack -e 40 -c 2 -a 0 -i 12 -k AGT
+ -t 2.180194935 -s 0 -d -1 -p tcp -e 1040 -c 2 -a 0 -i 13 -k AGT 
- -t 2.180194935 -s 0 -d -1 -p tcp -e 1040 -c 2 -a 0 -i 13 -k AGT
h -t 2.180194935 -s 0 -d -1 -p tcp -e 1040 -c 2 -a 0 -i 13 -k AGT
+ -t 2.180194935 -s 0 -d -1 -p tcp -e 1040 -c 2 -a 0 -i 14 -k AGT 
- -t 2.180194935 -s 0 -d -1 -p tcp -e 1040 -c 2 -a 0 -i 14 -k AGT
h -t 2.180194935 -s 0 -d -1 -p tcp -e 1040 -c 2 -a 0 -i 14 -k AGT
+ -t 2.180194935 -s 0 -d 4 -p tcp -e 1084 -c 2 -a 0 -i 13 -k RTR 
- -t 2.180194935 -s 0 -d 4 -p tcp -e 1084 -c 2 -a 0 -i 13 -k RTR
h -t 2.180194935 -s 0 -d 4 -p tcp -e 1084 -c 2 -a 0 -i 13 -k RTR
+ -t 2.180194935 -s 0 -d 4 -p tcp -e 1060 -c 2 -a 0 -i 14 -k RTR 
- -t 2.180194935 -s 0 -d 4 -p tcp -e 1060 -c 2 -a 0 -i 14 -k RTR
h -t 2.180194935 -s 0 -d 4 -p tcp -e 1060 -c 2 -a 0 -i 14 -k RTR
+ -t 2.190653198 -s 4 -d 3 -p tcp -e 1084 -c 2 -a 0 -i 13 -k RTR 
- -t 2.190653198 -s 4 -d 3 -p tcp -e 1084 -c 2 -a 0 -i 13 -k RTR
h -t 2.190653198 -s 4 -d 3 -p tcp -e 1084 -c 2 -a 0 -i 13 -k RTR
+ -t 2.200851629 -s 3 -d 9 -p tcp -e 1084 -c 2 -a 0 -i 11 -k RTR 
- -t 2.200851629 -s 3 -d 9 -p tcp -e 1084 -c 2 -a 0 -i 11 -k RTR
h -t 2.200851629 -s 3 -d 9 -p tcp -e 1084 -c 2 -a 0 -i 11 -k RTR
+ -t 2.205284970 -s 6 -d 2 -p DSR -e 76 -c 2 -a 0 -i 7 -k RTR 
- -t 2.205284970 -s 6 -d 2 -p DSR -e 76 -c 2 -a 0 -i 7 -k RTR
h -t 2.205284970 -s 6 -d 2 -p DSR -e 76 -c 2 -a 0 -i 7 -k RTR
+ -t 2.207519137 -s 2 -d 1 -p DSR -e 76 -c 2 -a 0 -i 7 -k RTR 
- -t 2.207519137 -s 2 -d 1 -p DSR -e 76 -c 2 -a 0 -i 7 -k RTR
h -t 2.207519137 -s 2 -d 1 -p DSR -e 76 -c 2 -a 0 -i 7 -k RTR
+ -t 2.209653584 -s 1 -d 0 -p DSR -e 76 -c 2 -a 0 -i 7 -k RTR 
- -t 2.209653584 -s 1 -d 0 -p DSR -e 76 -c 2 -a 0 -i 7 -k RTR
h -t 2.209653584 -s 1 -d 0 -p DSR -e 76 -c 2 -a 0 -i 7 -k RTR
+ -t 2.220032470 -s 3 -d 9 -p tcp -e 1084 -c 2 -a 0 -i 13 -k RTR 
- -t 2.220032470 -s 3 -d 9 -p tcp -e 1084 -c 2 -a 0 -i 13 -k RTR
h -t 2.220032470 -s 3 -d 9 -p tcp -e 1084 -c 2 -a 0 -i 13 -k RTR
r -t 2.230409924 -s 9 -d 9 -p tcp -e 1040 -c 2 -a 0 -i 11 -k AGT
+ -t 2.230409924 -s 9 -d -1 -p ack -e 40 -c 2 -a 0 -i 15 -k AGT 
- -t 2.230409924 -s 9 -d -1 -p ack -e 40 -c 2 -a 0 -i 15 -k AGT
h -t 2.230409924 -s 9 -d -1 -p ack -e 40 -c 2 -a 0 -i 15 -k AGT
+ -t 2.230409924 -s 9 -d 2 -p ack -e 84 -c 2 -a 0 -i 15 -k RTR 
- -t 2.230409924 -s 9 -d 2 -p ack -e 84 -c 2 -a 0 -i 15 -k RTR
h -t 2.230409924 -s 9 -d 2 -p ack -e 84 -c 2 -a 0 -i 15 -k RTR
+ -t 2.241763982 -s 4 -d 3 -p tcp -e 1060 -c 2 -a 0 -i 14 -k RTR 
- -t 2.241763982 -s 4 -d 3 -p tcp -e 1060 -c 2 -a 0 -i 14 -k RTR
h -t 2.241763982 -s 4 -d 3 -p tcp -e 1060 -c 2 -a 0 -i 14 -k RTR
r -t 2.254540170 -s 9 -d 9 -p tcp -e 1040 -c 2 -a 0 -i 13 -k AGT
+ -t 2.254540170 -s 9 -d -1 -p ack -e 40 -c 2 -a 0 -i 16 -k AGT 
- -t 2.254540170 -s 9 -d -1 -p ack -e 40 -c 2 -a 0 -i 16 -k AGT
h -t 2.254540170 -s 9 -d -1 -p ack -e 40 -c 2 -a 0 -i 16 -k AGT
+ -t 2.254540170 -s 9 -d 2 -p ack -e 60 -c 2 -a 0 -i 16 -k RTR 
- -t 2.254540170 -s 9 -d 2 -p ack -e 60 -c 2 -a 0 -i 16 -k RTR
h -t 2.254540170 -s 9 -d 2 -p ack -e 60 -c 2 -a 0 -i 16 -k RTR
+ -t 2.256858060 -s 2 -d 1 -p ack -e 84 -c 2 -a 0 -i 15 -k RTR 
- -t 2.256858060 -s 2 -d 1 -p ack -e 84 -c 2 -a 0 -i 15 -k RTR
h -t 2.256858060 -s 2 -d 1 -p ack -e 84 -c 2 -a 0 -i 15 -k RTR
+ -t 2.266994852 -s 3 -d 9 -p tcp -e 1060 -c 2 -a 0 -i 14 -k RTR 
- -t 2.266994852 -s 3 -d 9 -p tcp -e 1060 -c 2 -a 0 -i 14 -k RTR
h -t 2.266994852 -s 3 -d 9 -p tcp -e 1060 -c 2 -a 0 -i 14 -k RTR
+ -t 2.269330924 -s 2 -d 1 -p ack -e 60 -c 2 -a 0 -i 16 -k RTR 
- -t 2.269330924 -s 2 -d 1 -p ack -e 60 -c 2 -a 0 -i 16 -k RTR
h -t 2.269330924 -s 2 -d 1 -p ack -e 60 -c 2 -a 0 -i 16 -k RTR
+ -t 2.271629371 -s 1 -d 0 -p ack -e 84 -c 2 -a 0 -i 15 -k RTR 
- -t 2.271629371 -s 1 -d 0 -p ack -e 84 -c 2 -a 0 -i 15 -k RTR
h -t 2.271629371 -s 1 -d 0 -p ack -e 84 -c 2 -a 0 -i 15 -k RTR
+ -t 2.273656634 -s 1 -d 0 -p ack -e 60 -c 2 -a 0 -i 16 -k RTR 
- -t 2.273656634 -s 1 -d 0 -p ack -e 60 -c 2 -a 0 -i 16 -k RTR
h -t 2.273656634 -s 1 -d 0 -p ack -e 60 -c 2 -a 0 -i 16 -k RTR
r -t 2.276133603 -s 0 -d 0 -p ack -e 40 -c 2 -a 0 -i 15 -k AGT
+ -t 2.276133603 -s 0 -d -1 -p tcp -e 1040 -c 2 -a 0 -i 17 -k AGT 
- -t 2.276133603 -s 0 -d -1 -p tcp -e 1040 -c 2 -a 0 -i 17 -k AGT
h -t 2.276133603 -s 0 -d -1 -p tcp -e 1040 -c 2 -a 0 -i 17 -k AGT
+ -t 2.276133603 -s 0 -d -1 -p tcp -e 1040 -c 2 -a 0 -i 18 -k AGT 
- -t 2.276133603 -s 0 -d -1 -p tcp -e 1040 -c 2 -a 0 -i 18 -k AGT
h -t 2.276133603 -s 0 -d -1 -p tcp -e 1040 -c 2 -a 0 -i 18 -k AGT
+ -t 2.276133603 -s 0 -d 4 -p tcp -e 1060 -c 2 -a 0 -i 17 -k RTR 
- -t 2.276133603 -s 0 -d 4 -p tcp -e 1060 -c 2 -a 0 -i 17 -k RTR
h -t 2.276133603 -s 0 -d 4 -p tcp -e 1060 -c 2 -a 0 -i 17 -k RTR
+ -t 2.276133603 -s 0 -d 4 -p tcp -e 1060 -c 2 -a 0 -i 18 -k RTR 
- -t 2.276133603 -s 0 -d 4 -p tcp -e 1060 -c 2 -a 0 -i 18 -k RTR
h -t 2.276133603 -s 0 -d 4 -p tcp -e 1060 -c 2 -a 0 -i 18 -k RTR
+ -t 2.286199867 -s 4 -d 3 -p tcp -e 1060 -c 2 -a 0 -i 17 -k RTR 
- -t 2.286199867 -s 4 -d 3 -p tcp -e 1060 -c 2 -a 0 -i 17 -k RTR
h -t 2.286199867 -s 4 -d 3 -p tcp -e 1060 -c 2 -a 0 -i 17 -k RTR
r -t 2.296375876 -s 9 -d 9 -p tcp -e 1040 -c 2 -a 0 -i 14 -k AGT
+ -t 2.296375876 -s 9 -d -1 -p ack -e 40 -c 2 -a 0 -i 19 -k AGT 
- -t 2.296375876 -s 9 -d -1 -p ack -e 40 -c 2 -a 0 -i 19 -k AGT
h -t 2.296375876 -s 9 -d -1 -p ack -e 40 -c 2 -a 0 -i 19 -k AGT
+ -t 2.296375876 -s 9 -d 2 -p ack -e 60 -c 2 -a 0 -i 19 -k RTR 
- -t 2.296375876 -s 9 -d 2 -p ack -e 60 -c 2 -a 0 -i 19 -k RTR
h -t 2.296375876 -s 9 -d 2 -p ack -e 60 -c 2 -a 0 -i 19 -k RTR
+ -t 2.298741766 -s 2 -d 1 -p ack -e 60 -c 2 -a 0 -i 19 -k RTR 
- -t 2.298741766 -s 2 -d 1 -p ack -e 60 -c 2 -a 0 -i 19 -k RTR
h -t 2.298741766 -s 2 -d 1 -p ack -e 60 -c 2 -a 0 -i 19 -k RTR
r -t 2.300857065 -s 0 -d 0 -p ack -e 40 -c 2 -a 0 -i 16 -k AGT
+ -t 2.300857065 -s 0 -d -1 -p tcp -e 1040 -c 2 -a 0 -i 20 -k AGT 
- -t 2.300857065 -s 0 -d -1 -p tcp -e 1040 -c 2 -a 0 -i 20 -k AGT
h -t 2.300857065 -s 0 -d -1 -p tcp -e 1040 -c 2 -a 0 -i 20 -k AGT
+ -t 2.300857065 -s 0 -d -1 -p tcp -e 1040 -c 2 -a 0 -i 21 -k AGT 
- -t 2.300857065 -s 0 -d -1 -p tcp -e 1040 -c 2 -a 0 -i 21 -k AGT
h -t 2.300857065 -s 0 -d -1 -p tcp -e 1040 -c 2 -a 0 -i 21 -k AGT
+ -t 2.300857065 -s 0 -d 4 -p tcp -e 1060 -c 2 -a 0 -i 20 -k RTR 
- -t 2.300857065 -s 0 -d 4 -p tcp -e 1060 -c 2 -a 0 -i 20 -k RTR
h -t 2.300857065 -s 0 -d 4 -p tcp -e 1060 -c 2 -a 0 -i 20 -k RTR
+ -t 2.300857065 -s 0 -d 4 -p tcp -e 1060 -c 2 -a 0 -i 21 -k RTR 
- -t 2.300857065 -s 0 -d 4 -p tcp -e 1060 -c 2 -a 0 -i 21 -k RTR
h -t 2.300857065 -s 0 -d 4 -p tcp -e 1060 -c 2 -a 0 -i 21 -k RTR
+ -t 2.310864250 -s 3 -d 9 -p tcp -e 1060 -c 2 -a 0 -i 17 -k RTR 
- -t 2.310864250 -s 3 -d 9 -p tcp -e 1060 -c 2 -a 0 -i 17 -k RTR
h -t 2.310864250 -s 3 -d 9 -p tcp -e 1060 -c 2 -a 0 -i 17 -k RTR
+ -t 2.313070967 -s 1 -d 0 -p ack -e 60 -c 2 -a 0 -i 19 -k RTR 
- -t 2.313070967 -s 1 -d 0 -p ack -e 60 -c 2 -a 0 -i 19 -k RTR
h -t 2.313070967 -s 1 -d 0 -p ack -e 60 -c 2 -a 0 -i 19 -k RTR
+ -t 2.323267549 -s 4 -d 3 -p tcp -e 1060 -c 2 -a 0 -i 18 -k RTR 
- -t 2.323267549 -s 4 -d 3 -p tcp -e 1060 -c 2 -a 0 -i 18 -k RTR
h -t 2.323267549 -s 4 -d 3 -p tcp -e 1060 -c 2 -a 0 -i 18 -k RTR
r -t 2.325312974 -s 0 -d 0 -p ack -e 40 -c 2 -a 0 -i 19 -k AGT
+ -t 2.325312974 -s 0 -d -1 -p tcp -e 1040 -c 2 -a 0 -i 22 -k AGT 
- -t 2.325312974 -s 0 -d -1 -p tcp -e 1040 -c 2 -a 0 -i 22 -k AGT
h -t 2.325312974 -s 0 -d -1 -p tcp -e 1040 -c 2 -a 0 -i 22 -k AGT
+ -t 2.325312974 -s 0 -d -1 -p tcp -e 1040 -c 2 -a 0 -i 23 -k AGT 
- -t 2.325312974 -s 0 -d -1 -p tcp -e 1040 -c 2 -a 0 -i 23 -k AGT
h -t 2.325312974 -s 0 -d -1 -p tcp -e 1040 -c 2 -a 0 -i 23 -k AGT
+ -t 2.325312974 -s 0 -d 4 -p tcp -e 1060 -c 2 -a 0 -i 22 -k RTR 
- -t 2.325312974 -s 0 -d 4 -p tcp -e 1060 -c 2 -a 0 -i 22 -k RTR
h -t 2.325312974 -s 0 -d 4 -p tcp -e 1060 -c 2 -a 0 -i 22 -k RTR
+ -t 2.325312974 -s 0 -d 4 -p tcp -e 1060 -c 2 -a 0 -i 23 -k RTR 
- -t 2.325312974 -s 0 -d 4 -p tcp -e 1060 -c 2 -a 0 -i 23 -k RTR
h -t 2.325312974 -s 0 -d 4 -p tcp -e 1060 -c 2 -a 0 -i 23 -k RTR
+ -t 2.335520158 -s 3 -d 9 -p tcp -e 1060 -c 2 -a 0 -i 18 -k RTR 
- -t 2.335520158 -s 3 -d 9 -p tcp -e 1060 -c 2 -a 0 -i 18 -k RTR
h -t 2.335520158 -s 3 -d 9 -p tcp -e 1060 -c 2 -a 0 -i 18 -k RTR
r -t 2.345845613 -s 9 -d 9 -p tcp -e 1040 -c 2 -a 0 -i 17 -k AGT
+ -t 2.345845613 -s 9 -d -1 -p ack -e 40 -c 2 -a 0 -i 24 -k AGT 
- -t 2.345845613 -s 9 -d -1 -p ack -e 40 -c 2 -a 0 -i 24 -k AGT
h -t 2.345845613 -s 9 -d -1 -p ack -e 40 -c 2 -a 0 -i 24 -k AGT
+ -t 2.345845613 -s 9 -d 2 -p ack -e 60 -c 2 -a 0 -i 24 -k RTR 
- -t 2.345845613 -s 9 -d 2 -p ack -e 60 -c 2 -a 0 -i 24 -k RTR
h -t 2.345845613 -s 9 -d 2 -p ack -e 60 -c 2 -a 0 -i 24 -k RTR
r -t 2.355991552 -s 9 -d 9 -p tcp -e 1040 -c 2 -a 0 -i 18 -k AGT
+ -t 2.355991552 -s 9 -d -1 -p ack -e 40 -c 2 -a 0 -i 25 -k AGT 
- -t 2.355991552 -s 9 -d -1 -p ack -e 40 -c 2 -a 0 -i 25 -k AGT
h -t 2.355991552 -s 9 -d -1 -p ack -e 40 -c 2 -a 0 -i 25 -k AGT
+ -t 2.355991552 -s 9 -d 2 -p ack -e 60 -c 2 -a 0 -i 25 -k RTR 
- -t 2.355991552 -s 9 -d 2 -p ack -e 60 -c 2 -a 0 -i 25 -k RTR
h -t 2.355991552 -s 9 -d 2 -p ack -e 60 -c 2 -a 0 -i 25 -k RTR
+ -t 2.358077442 -s 2 -d 1 -p ack -e 60 -c 2 -a 0 -i 24 -k RTR 
- -t 2.358077442 -s 2 -d 1 -p ack -e 60 -c 2 -a 0 -i 24 -k RTR
h -t 2.358077442 -s 2 -d 1 -p ack -e 60 -c 2 -a 0 -i 24 -k RTR
+ -t 2.360083890 -s 1 -d 0 -p ack -e 60 -c 2 -a 0 -i 24 -k RTR 
- -t 2.360083890 -s 1 -d 0 -p ack -e 60 -c 2 -a 0 -i 24 -k RTR
h -t 2.360083890 -s 1 -d 0 -p ack -e 60 -c 2 -a 0 -i 24 -k RTR
r -t 2.362188859 -s 0 -d 0 -p ack -e 40 -c 2 -a 0 -i 24 -k AGT
+ -t 2.362188859 -s 0 -d -1 -p tcp -e 1040 -c 2 -a 0 -i 26 -k AGT 
- -t 2.362188859 -s 0 -d -1 -p tcp -e 1040 -c 2 -a 0 -i 26 -k AGT
h -t 2.362188859 -s 0 -d -1 -p tcp -e 1040 -c 2 -a 0 -i 26 -k AGT
+ -t 2.362188859 -s 0 -d -1 -p tcp -e 1040 -c 2 -a 0 -i 27 -k AGT 
- -t 2.362188859 -s 0 -d -1 -p tcp -e 1040 -c 2 -a 0 -i 27 -k AGT
h -t 2.362188859 -s 0 -d -1 -p tcp -e 1040 -c 2 -a 0 -i 27 -k AGT
+ -t 2.362188859 -s 0 -d 4 -p tcp -e 1060 -c 2 -a 0 -i 26 -k RTR 
- -t 2.362188859 -s 0 -d 4 -p tcp -e 1060 -c 2 -a 0 -i 26 -k RTR
h -t 2.362188859 -s 0 -d 4 -p tcp -e 1060 -c 2 -a 0 -i 26 -k RTR
+ -t 2.362188859 -s 0 -d 4 -p tcp -e 1060 -c 2 -a 0 -i 27 -k RTR 
- -t 2.362188859 -s 0 -d 4 -p tcp -e 1060 -c 2 -a 0 -i 27 -k RTR
h -t 2.362188859 -s 0 -d 4 -p tcp -e 1060 -c 2 -a 0 -i 27 -k RTR
+ -t 2.372215122 -s 4 -d 3 -p tcp -e 1060 -c 2 -a 0 -i 20 -k RTR 
- -t 2.372215122 -s 4 -d 3 -p tcp -e 1060 -c 2 -a 0 -i 20 -k RTR
h -t 2.372215122 -s 4 -d 3 -p tcp -e 1060 -c 2 -a 0 -i 20 -k RTR
+ -t 2.382622140 -s 4 -d 3 -p tcp -e 1060 -c 2 -a 0 -i 21 -k RTR 
- -t 2.382622140 -s 4 -d 3 -p tcp -e 1060 -c 2 -a 0 -i 21 -k RTR
h -t 2.382622140 -s 4 -d 3 -p tcp -e 1060 -c 2 -a 0 -i 21 -k RTR
+ -t 2.392748570 -s 3 -d 9 -p tcp -e 1060 -c 2 -a 0 -i 20 -k RTR 
- -t 2.392748570 -s 3 -d 9 -p tcp -e 1060 -c 2 -a 0 -i 20 -k RTR
h -t 2.392748570 -s 3 -d 9 -p tcp -e 1060 -c 2 -a 0 -i 20 -k RTR
+ -t 2.394964642 -s 2 -d 1 -p ack -e 60 -c 2 -a 0 -i 25 -k RTR 
- -t 2.394964642 -s 2 -d 1 -p ack -e 60 -c 2 -a 0 -i 25 -k RTR
h -t 2.394964642 -s 2 -d 1 -p ack -e 60 -c 2 -a 0 -i 25 -k RTR
+ -t 2.405281434 -s 3 -d 9 -p tcp -e 1060 -c 2 -a 0 -i 21 -k RTR 
- -t 2.405281434 -s 3 -d 9 -p tcp -e 1060 -c 2 -a 0 -i 21 -k RTR
h -t 2.405281434 -s 3 -d 9 -p tcp -e 1060 -c 2 -a 0 -i 21 -k RTR
r -t 2.415286889 -s 9 -d 9 -p tcp -e 1040 -c 2 -a 0 -i 20 -k AGT
+ -t 2.415286889 -s 9 -d -1 -p ack -e 40 -c 2 -a 0 -i 28 -k AGT 
- -t 2.415286889 -s 9 -d -1 -p ack -e 40 -c 2 -a 0 -i 28 -k AGT
h -t 2.415286889 -s 9 -d -1 -p ack -e 40 -c 2 -a 0 -i 28 -k AGT
+ -t 2.415286889 -s 9 -d 2 -p ack -e 60 -c 2 -a 0 -i 28 -k RTR 
- -t 2.415286889 -s 9 -d 2 -p ack -e 60 -c 2 -a 0 -i 28 -k RTR
h -t 2.415286889 -s 9 -d 2 -p ack -e 60 -c 2 -a 0 -i 28 -k RTR
+ -t 2.417312779 -s 2 -d 1 -p ack -e 60 -c 2 -a 0 -i 28 -k RTR 
- -t 2.417312779 -s 2 -d 1 -p ack -e 60 -c 2 -a 0 -i 28 -k RTR
h -t 2.417312779 -s 2 -d 1 -p ack -e 60 -c 2 -a 0 -i 28 -k RTR
+ -t 2.419359226 -s 1 -d 0 -p ack -e 60 -c 2 -a 0 -i 25 -k RTR 
- -t 2.419359226 -s 1 -d 0 -p ack -e 60 -c 2 -a 0 -i 25 -k RTR
h -t 2.419359226 -s 1 -d 0 -p ack -e 60 -c 2 -a 0 -i 25 -k RTR
+ -t 2.429615808 -s 4 -d 3 -p tcp -e 1060 -c 2 -a 0 -i 22 -k RTR 
- -t 2.429615808 -s 4 -d 3 -p tcp -e 1060 -c 2 -a 0 -i 22 -k RTR
h -t 2.429615808 -s 4 -d 3 -p tcp -e 1060 -c 2 -a 0 -i 22 -k RTR
+ -t 2.439622239 -s 3 -d 9 -p tcp -e 1060 -c 2 -a 0 -i 22 -k RTR 
- -t 2.439622239 -s 3 -d 9 -p tcp -e 1060 -c 2 -a 0 -i 22 -k RTR
h -t 2.439622239 -s 3 -d 9 -p tcp -e 1060 -c 2 -a 0 -i 22 -k RTR
r -t 2.449687693 -s 9 -d 9 -p tcp -e 1040 -c 2 -a 0 -i 21 -k AGT
+ -t 2.449687693 -s 9 -d -1 -p ack -e 40 -c 2 -a 0 -i 29 -k AGT 
- -t 2.449687693 -s 9 -d -1 -p ack -e 40 -c 2 -a 0 -i 29 -k AGT
h -t 2.449687693 -s 9 -d -1 -p ack -e 40 -c 2 -a 0 -i 29 -k AGT
+ -t 2.449687693 -s 9 -d 2 -p ack -e 60 -c 2 -a 0 -i 29 -k RTR 
- -t 2.449687693 -s 9 -d 2 -p ack -e 60 -c 2 -a 0 -i 29 -k RTR
h -t 2.449687693 -s 9 -d 2 -p ack -e 60 -c 2 -a 0 -i 29 -k RTR
+ -t 2.451753583 -s 2 -d 1 -p ack -e 60 -c 2 -a 0 -i 29 -k RTR 
- -t 2.451753583 -s 2 -d 1 -p ack -e 60 -c 2 -a 0 -i 29 -k RTR
h -t 2.451753583 -s 2 -d 1 -p ack -e 60 -c 2 -a 0 -i 29 -k RTR
+ -t 2.453800031 -s 1 -d 0 -p ack -e 60 -c 2 -a 0 -i 28 -k RTR 
- -t 2.453800031 -s 1 -d 0 -p ack -e 60 -c 2 -a 0 -i 28 -k RTR
h -t 2.453800031 -s 1 -d 0 -p ack -e 60 -c 2 -a 0 -i 28 -k RTR
+ -t 2.455907293 -s 1 -d 0 -p ack -e 60 -c 2 -a 0 -i 29 -k RTR 
- -t 2.455907293 -s 1 -d 0 -p ack -e 60 -c 2 -a 0 -i 29 -k RTR
h -t 2.455907293 -s 1 -d 0 -p ack -e 60 -c 2 -a 0 -i 29 -k RTR
r -t 2.458012263 -s 0 -d 0 -p ack -e 40 -c 2 -a 0 -i 25 -k AGT
+ -t 2.458012263 -s 0 -d -1 -p tcp -e 1040 -c 2 -a 0 -i 30 -k AGT 
- -t 2.458012263 -s 0 -d -1 -p tcp -e 1040 -c 2 -a 0 -i 30 -k AGT
h -t 2.458012263 -s 0 -d -1 -p tcp -e 1040 -c 2 -a 0 -i 30 -k AGT
+ -t 2.458012263 -s 0 -d -1 -p tcp -e 1040 -c 2 -a 0 -i 31 -k AGT 
- -t 2.458012263 -s 0 -d -1 -p tcp -e 1040 -c 2 -a 0 -i 31 -k AGT
h -t 2.458012263 -s 0 -d -1 -p tcp -e 1040 -c 2 -a 0 -i 31 -k AGT
+ -t 2.458012263 -s 0 -d 4 -p tcp -e 1060 -c 2 -a 0 -i 30 -k RTR 
- -t 2.458012263 -s 0 -d 4 -p tcp -e 1060 -c 2 -a 0 -i 30 -k RTR
h -t 2.458012263 -s 0 -d 4 -p tcp -e 1060 -c 2 -a 0 -i 30 -k RTR
+ -t 2.458012263 -s 0 -d 4 -p tcp -e 1060 -c 2 -a 0 -i 31 -k RTR 
- -t 2.458012263 -s 0 -d 4 -p tcp -e 1060 -c 2 -a 0 -i 31 -k RTR
h -t 2.458012263 -s 0 -d 4 -p tcp -e 1060 -c 2 -a 0 -i 31 -k RTR
r -t 2.460077555 -s 0 -d 0 -p ack -e 40 -c 2 -a 0 -i 28 -k AGT
+ -t 2.460077555 -s 0 -d -1 -p tcp -e 1040 -c 2 -a 0 -i 32 -k AGT 
- -t 2.460077555 -s 0 -d -1 -p tcp -e 1040 -c 2 -a 0 -i 32 -k AGT
h -t 2.460077555 -s 0 -d -1 -p tcp -e 1040 -c 2 -a 0 -i 32 -k AGT
+ -t 2.460077555 -s 0 -d -1 -p tcp -e 1040 -c 2 -a 0 -i 33 -k AGT 
- -t 2.460077555 -s 0 -d -1 -p tcp -e 1040 -c 2 -a 0 -i 33 -k AGT
h -t 2.460077555 -s 0 -d -1 -p tcp -e 1040 -c 2 -a 0 -i 33 -k AGT
+ -t 2.460077555 -s 0 -d 4 -p tcp -e 1060 -c 2 -a 0 -i 32 -k RTR 
- -t 2.460077555 -s 0 -d 4 -p tcp -e 1060 -c 2 -a 0 -i 32 -k RTR
h -t 2.460077555 -s 0 -d 4 -p tcp -e 1060 -c 2 -a 0 -i 32 -k RTR
+ -t 2.460077555 -s 0 -d 4 -p tcp -e 1060 -c 2 -a 0 -i 33 -k RTR 
- -t 2.460077555 -s 0 -d 4 -p tcp -e 1060 -c 2 -a 0 -i 33 -k RTR
h -t 2.460077555 -s 0 -d 4 -p tcp -e 1060 -c 2 -a 0 -i 33 -k RTR
+ -t 2.470263818 -s 4 -d 3 -p tcp -e 1060 -c 2 -a 0 -i 23 -k RTR 
- -t 2.470263818 -s 4 -d 3 -p tcp -e 1060 -c 2 -a 0 -i 23 -k RTR
h -t 2.470263818 -s 4 -d 3 -p tcp -e 1060 -c 2 -a 0 -i 23 -k RTR
+ -t 2.480470249 -s 3 -d 9 -p tcp -e 1060 -c 2 -a 0 -i 23 -k RTR 
- -t 2.480470249 -s 3 -d 9 -p tcp -e 1060 -c 2 -a 0 -i 23 -k RTR
h -t 2.480470249 -s 3 -d 9 -p tcp -e 1060 -c 2 -a 0 -i 23 -k RTR
r -t 2.490655703 -s 9 -d 9 -p tcp -e 1040 -c 2 -a 0 -i 22 -k AGT
+ -t 2.490655703 -s 9 -d -1 -p ack -e 40 -c 2 -a 0 -i 34 -k AGT 
- -t 2.490655703 -s 9 -d -1 -p ack -e 40 -c 2 -a 0 -i 34 -k AGT
h -t 2.490655703 -s 9 -d -1 -p ack -e 40 -c 2 -a 0 -i 34 -k AGT
+ -t 2.490655703 -s 9 -d 2 -p ack -e 60 -c 2 -a 0 -i 34 -k RTR 
- -t 2.490655703 -s 9 -d 2 -p ack -e 60 -c 2 -a 0 -i 34 -k RTR
h -t 2.490655703 -s 9 -d 2 -p ack -e 60 -c 2 -a 0 -i 34 -k RTR
+ -t 2.492761593 -s 2 -d 1 -p ack -e 60 -c 2 -a 0 -i 34 -k RTR 
- -t 2.492761593 -s 2 -d 1 -p ack -e 60 -c 2 -a 0 -i 34 -k RTR
h -t 2.492761593 -s 2 -d 1 -p ack -e 60 -c 2 -a 0 -i 34 -k RTR
r -t 2.494816892 -s 0 -d 0 -p ack -e 40 -c 2 -a 0 -i 29 -k AGT
+ -t 2.494816892 -s 0 -d -1 -p tcp -e 1040 -c 2 -a 0 -i 35 -k AGT 
- -t 2.494816892 -s 0 -d -1 -p tcp -e 1040 -c 2 -a 0 -i 35 -k AGT
h -t 2.494816892 -s 0 -d -1 -p tcp -e 1040 -c 2 -a 0 -i 35 -k AGT
+ -t 2.494816892 -s 0 -d -1 -p tcp -e 1040 -c 2 -a 0 -i 36 -k AGT 
- -t 2.494816892 -s 0 -d -1 -p tcp -e 1040 -c 2 -a 0 -i 36 -k AGT
h -t 2.494816892 -s 0 -d -1 -p tcp -e 1040 -c 2 -a 0 -i 36 -k AGT
+ -t 2.494816892 -s 0 -d 4 -p tcp -e 1060 -c 2 -a 0 -i 35 -k RTR 
- -t 2.494816892 -s 0 -d 4 -p tcp -e 1060 -c 2 -a 0 -i 35 -k RTR
h -t 2.494816892 -s 0 -d 4 -p tcp -e 1060 -c 2 -a 0 -i 35 -k RTR
+ -t 2.494816892 -s 0 -d 4 -p tcp -e 1060 -c 2 -a 0 -i 36 -k RTR 
- -t 2.494816892 -s 0 -d 4 -p tcp -e 1060 -c 2 -a 0 -i 36 -k RTR
h -t 2.494816892 -s 0 -d 4 -p tcp -e 1060 -c 2 -a 0 -i 36 -k RTR
+ -t 2.504923155 -s 4 -d 3 -p tcp -e 1060 -c 2 -a 0 -i 26 -k RTR 
- -t 2.504923155 -s 4 -d 3 -p tcp -e 1060 -c 2 -a 0 -i 26 -k RTR
h -t 2.504923155 -s 4 -d 3 -p tcp -e 1060 -c 2 -a 0 -i 26 -k RTR
+ -t 2.515129586 -s 3 -d 9 -p tcp -e 1060 -c 2 -a 0 -i 26 -k RTR 
- -t 2.515129586 -s 3 -d 9 -p tcp -e 1060 -c 2 -a 0 -i 26 -k RTR
h -t 2.515129586 -s 3 -d 9 -p tcp -e 1060 -c 2 -a 0 -i 26 -k RTR
r -t 2.525315040 -s 9 -d 9 -p tcp -e 1040 -c 2 -a 0 -i 23 -k AGT
+ -t 2.525315040 -s 9 -d -1 -p ack -e 40 -c 2 -a 0 -i 37 -k AGT 
- -t 2.525315040 -s 9 -d -1 -p ack -e 40 -c 2 -a 0 -i 37 -k AGT
h -t 2.525315040 -s 9 -d -1 -p ack -e 40 -c 2 -a 0 -i 37 -k AGT
+ -t 2.525315040 -s 9 -d 2 -p ack -e 60 -c 2 -a 0 -i 37 -k RTR 
- -t 2.525315040 -s 9 -d 2 -p ack -e 60 -c 2 -a 0 -i 37 -k RTR
h -t 2.525315040 -s 9 -d 2 -p ack -e 60 -c 2 -a 0 -i 37 -k RTR
+ -t 2.527440931 -s 2 -d 1 -p ack -e 60 -c 2 -a 0 -i 37 -k RTR 
- -t 2.527440931 -s 2 -d 1 -p ack -e 60 -c 2 -a 0 -i 37 -k RTR
h -t 2.527440931 -s 2 -d 1 -p ack -e 60 -c 2 -a 0 -i 37 -k RTR
+ -t 2.529447378 -s 1 -d 0 -p ack -e 60 -c 2 -a 0 -i 34 -k RTR 
- -t 2.529447378 -s 1 -d 0 -p ack -e 60 -c 2 -a 0 -i 34 -k RTR
h -t 2.529447378 -s 1 -d 0 -p ack -e 60 -c 2 -a 0 -i 34 -k RTR
+ -t 2.539603960 -s 4 -d 3 -p tcp -e 1060 -c 2 -a 0 -i 27 -k RTR 
- -t 2.539603960 -s 4 -d 3 -p tcp -e 1060 -c 2 -a 0 -i 27 -k RTR
h -t 2.539603960 -s 4 -d 3 -p tcp -e 1060 -c 2 -a 0 -i 27 -k RTR
+ -t 2.549770978 -s 4 -d 3 -p tcp -e 1060 -c 2 -a 0 -i 30 -k RTR 
- -t 2.549770978 -s 4 -d 3 -p tcp -e 1060 -c 2 -a 0 -i 30 -k RTR
h -t 2.549770978 -s 4 -d 3 -p tcp -e 1060 -c 2 -a 0 -i 30 -k RTR
+ -t 2.559777408 -s 3 -d 9 -p tcp -e 1060 -c 2 -a 0 -i 27 -k RTR 
- -t 2.559777408 -s 3 -d 9 -p tcp -e 1060 -c 2 -a 0 -i 27 -k RTR
h -t 2.559777408 -s 3 -d 9 -p tcp -e 1060 -c 2 -a 0 -i 27 -k RTR
r -t 2.562789642 -s 0 -d 0 -p ack -e 40 -c 2 -a 0 -i 34 -k AGT
+ -t 2.562789642 -s 0 -d -1 -p tcp -e 1040 -c 2 -a 0 -i 38 -k AGT 
- -t 2.562789642 -s 0 -d -1 -p tcp -e 1040 -c 2 -a 0 -i 38 -k AGT
h -t 2.562789642 -s 0 -d -1 -p tcp -e 1040 -c 2 -a 0 -i 38 -k AGT
+ -t 2.562789642 -s 0 -d -1 -p tcp -e 1040 -c 2 -a 0 -i 39 -k AGT 
- -t 2.562789642 -s 0 -d -1 -p tcp -e 1040 -c 2 -a 0 -i 39 -k AGT
h -t 2.562789642 -s 0 -d -1 -p tcp -e 1040 -c 2 -a 0 -i 39 -k AGT
+ -t 2.562789642 -s 0 -d 4 -p tcp -e 1060 -c 2 -a 0 -i 38 -k RTR 
- -t 2.562789642 -s 0 -d 4 -p tcp -e 1060 -c 2 -a 0 -i 38 -k RTR
h -t 2.562789642 -s 0 -d 4 -p tcp -e 1060 -c 2 -a 0 -i 38 -k RTR
+ -t 2.562789642 -s 0 -d 4 -p tcp -e 1060 -c 2 -a 0 -i 39 -k RTR 
- -t 2.562789642 -s 0 -d 4 -p tcp -e 1060 -c 2 -a 0 -i 39 -k RTR
h -t 2.562789642 -s 0 -d 4 -p tcp -e 1060 -c 2 -a 0 -i 39 -k RTR
+ -t 2.573256827 -s 3 -d 9 -p tcp -e 1060 -c 2 -a 0 -i 30 -k RTR 
- -t 2.573256827 -s 3 -d 9 -p tcp -e 1060 -c 2 -a 0 -i 30 -k RTR
h -t 2.573256827 -s 3 -d 9 -p tcp -e 1060 -c 2 -a 0 -i 30 -k RTR
+ -t 2.575343545 -s 1 -d 0 -p ack -e 60 -c 2 -a 0 -i 37 -k RTR 
- -t 2.575343545 -s 1 -d 0 -p ack -e 60 -c 2 -a 0 -i 37 -k RTR
h -t 2.575343545 -s 1 -d 0 -p ack -e 60 -c 2 -a 0 -i 37 -k RTR